LAMMPS data file via write_data, version 12 Dec 2018, timestep = 2410000

5473 atoms
2 atom types

-2.5990201964441777e+01 2.6038157042834861e+01 xlo xhi
-2.4165927839852106e+01 2.3496188641094225e+01 ylo yhi
-2.4040972322107017e+01 2.4301296528975310e+01 zlo zhi

Masses

1 63.5
2 63.5

Atoms # atomic

2963 2 -6.3862174691625180e+00 -8.5636401892333520e+00 -2.1632857008688731e+01 0 0 0
2833 1 -4.4773716688923599e+00 -1.0077778540670785e+01 -2.1369943445449078e+01 0 0 0
642 1 -2.1539119614283049e+00 -9.0523899885156638e+00 -2.1025385923466477e+01 0 0 0
2787 1 1.9951908455612113e+00 -1.2412108144714352e+01 -2.0340520579574800e+01 0 0 0
1165 1 -1.7255888086077473e-01 -1.0518099772730753e+01 -2.0711526976106342e+01 0 0 0
403 1 4.0770426106094417e+00 -1.0139655207986593e+01 -2.2240136770869213e+01 0 0 0
116 1 2.3685866209235149e+00 -9.9284466675710714e+00 -2.0612458894235036e+01 0 0 0
4387 2 4.6932227339037667e+00 -8.9414579982297671e+00 -2.0250602569672520e+01 0 0 0
1806 1 1.9939080065166597e+00 -8.5918110417103879e+00 -2.2554509579466743e+01 0 0 0
1961 1 6.4855931347381786e+00 -9.2304705437860797e+00 -2.2175244700005983e+01 0 0 0
251 1 -1.2095191612201065e+01 -4.8051594840966656e+00 -2.0355751355162369e+01 0 0 0
3975 2 -8.2587303773704051e+00 -7.1180042736163758e+00 -2.1846413723472953e+01 0 0 0
3194 2 -6.0536809208713995e+00 -6.0603445621683187e+00 -2.1683205847770676e+01 0 0 0
5112 2 -3.9280603794984894e+00 -7.4558793813552171e+00 -2.1510704298347818e+01 0 0 0
4977 2 -3.7911117918265442e+00 -4.8543848345134011e+00 -2.1320510651397946e+01 0 0 0
4402 2 2.9399428408894557e-01 -8.1582503807076119e+00 -2.0954675785603943e+01 0 0 0
4664 2 -1.6851426266167686e+00 -6.4103703113126489e+00 -2.1202678436222751e+01 0 0 0
1426 1 6.9460579140019563e-01 -5.8256382023522049e+00 -2.0937345021165211e+01 0 0 0
606 1 2.7105882057561335e+00 -6.1066511784986188e+00 -2.2686721956604085e+01 0 0 0
4915 2 4.5886721960630359e+00 -7.6588273602713661e+00 -2.2381455796198850e+01 0 0 0
1891 1 4.8390601728396927e+00 -4.9380819031615850e+00 -2.2531397918717914e+01 0 0 0
4724 2 3.0881639479383014e+00 -4.7614282245600394e+00 -2.0625389710082970e+01 0 0 0
1274 1 2.5806344209198038e+00 -7.3637092415359628e+00 -2.0634864267259658e+01 0 0 0
2798 1 5.1817219482627523e+00 -6.3591762345351537e+00 -2.0425807719087068e+01 0 0 0
900 1 6.9859777000176910e+00 -6.7138181703698745e+00 -2.2095330488545255e+01 0 0 0
5206 2 7.0394471165611980e+00 -7.9509267566108939e+00 -2.0065944273785096e+01 0 0 0
2464 1 -1.4020814102002179e+01 -3.1585230004439060e+00 -2.0710986916974303e+01 0 0 0
3046 2 -1.1658153109761033e+01 -2.3043512276718623e+00 -2.0415045067609050e+01 0 0 0
399 1 -1.3485836298709390e+01 -6.9968292917964925e-01 -2.0622566519339841e+01 0 0 0
3216 2 -8.0089041411400590e+00 -4.4215041932987234e+00 -2.1817905841995920e+01 0 0 0
4115 2 -9.8157351234965713e+00 -2.4749694234849144e+00 -2.2097209852602131e+01 0 0 0
2508 1 -7.6623750219893481e+00 -1.5990286274663386e+00 -2.1893004303797625e+01 0 0 0
3802 2 -9.2023512102078122e+00 -1.3543082321599751e+00 -2.0062539281146506e+01 0 0 0
3645 2 -9.5612183218066171e+00 -3.9813966887267842e+00 -2.0111894212208881e+01 0 0 0
3753 2 -5.8848717920860336e+00 -3.2319915563339809e+00 -2.1700494695978357e+01 0 0 0
4820 2 -3.3321485782567968e+00 -2.3526882145612187e+00 -2.1358475050929449e+01 0 0 0
1436 1 -5.1233240191843654e+00 -8.0751202984721626e-01 -2.1785916930295333e+01 0 0 0
1655 1 -1.4375035780249186e+00 -4.0204916878379056e+00 -2.1164480707171091e+01 0 0 0
1117 1 -9.4861538655488453e-01 -1.6008017306108497e+00 -2.1219764542413042e+01 0 0 0
557 1 7.9174552126032050e-01 -1.7507589712048628e+00 -2.3040573988632364e+01 0 0 0
1498 1 1.0188155586105703e+00 -3.2699853555044323e+00 -2.0943046989691201e+01 0 0 0
3440 2 1.3594779087435294e+00 -6.2897771983584438e-01 -2.1073059548376129e+01 0 0 0
1389 1 2.6485053726315608e+00 -3.3590257946620854e+00 -2.2763403656500738e+01 0 0 0
4470 2 3.2012312500003399e+00 -9.3939334026244803e-01 -2.2912769358854476e+01 0 0 0
3196 2 3.3480672880748599e+00 -2.2124149169507223e+00 -2.0769196196343938e+01 0 0 0
4860 2 5.1772192512726329e+00 -2.5602830210080971e+00 -2.2644370433395608e+01 0 0 0
636 1 5.4253061106485756e+00 -3.7909610603346597e+00 -2.0476227534984503e+01 0 0 0
3490 2 5.7378821176293950e+00 -1.2794101543117262e+00 -2.0627193352193100e+01 0 0 0
4333 2 7.2130420898202310e+00 -4.1635365841857244e+00 -2.2306694787376813e+01 0 0 0
165 1 7.6154086150401863e+00 -1.6354844061228284e+00 -2.2431911293536515e+01 0 0 0
233 1 9.5756791912363859e+00 -3.1852802642378726e+00 -2.1990330638250601e+01 0 0 0
2276 1 7.8788787022937052e+00 -2.8845730109646102e+00 -2.0271736022641573e+01 0 0 0
581 1 9.9845375245428389e+00 -8.5002490974877420e-01 -2.2038521400680299e+01 0 0 0
1358 1 -3.6669052599039658e+00 -1.6386039980184893e+01 -1.6586149807392879e+01 0 0 0
2475 1 -1.2052554918067186e+01 -1.2528296392893617e+01 -1.7762991759150619e+01 0 0 0
4889 2 -7.6150621771744333e+00 -1.3300293435636835e+01 -1.7367352835104978e+01 0 0 0
977 1 -5.6727611993882308e+00 -1.4942912463998402e+01 -1.7048497109522692e+01 0 0 0
3385 2 -3.3035122611786782e+00 -1.3864838672994811e+01 -1.6779191842439801e+01 0 0 0
1114 1 -5.3837799145224539e+00 -1.2314131102735482e+01 -1.7131818099223828e+01 0 0 0
2230 1 -2.0568810124883088e+00 -1.2804001794422037e+01 -1.8714423467349555e+01 0 0 0
2185 1 -1.3286504855158726e-01 -1.4495135742722963e+01 -1.8179776458498420e+01 0 0 0
3384 2 -1.4678332798008686e+00 -1.5471043871676134e+01 -1.6373083082021562e+01 0 0 0
5315 2 -1.0238864746025766e+00 -1.2993231292600315e+01 -1.6534841021227773e+01 0 0 0
2482 1 1.0812833638988510e+00 -1.4619671342057691e+01 -1.6111049475361611e+01 0 0 0
4108 2 3.8927609589677168e+00 -1.4039359901322099e+01 -1.9993587671752728e+01 0 0 0
4255 2 2.2222113945456576e+00 -1.3505670650562655e+01 -1.8102842509250340e+01 0 0 0
1119 1 4.1292687001901340e+00 -1.5357623313941088e+01 -1.7798767136167648e+01 0 0 0
647 1 4.6896766618140386e+00 -1.2791963891995437e+01 -1.7925030857868443e+01 0 0 0
330 1 6.2010922179683066e+00 -1.3077981971273100e+01 -1.9792607395612013e+01 0 0 0
2265 1 6.4449205865314969e+00 -1.4491029403417413e+01 -1.7655277662404352e+01 0 0 0
2126 1 8.8081972849398174e+00 -1.3592232883512596e+01 -1.7432090099163894e+01 0 0 0
3590 2 -1.5616945010873076e+01 -1.0635811053173063e+01 -1.6240590764192664e+01 0 0 0
3335 2 -1.0425290924859063e+01 -8.9167240604490168e+00 -1.9961581334802680e+01 0 0 0
3580 2 -1.4062766747575440e+01 -1.0895429206043657e+01 -1.8149921752394249e+01 0 0 0
188 1 -1.1775029253947253e+01 -1.0056232427874086e+01 -1.8018348215958500e+01 0 0 0
4623 2 -1.3691607024752120e+01 -8.3860061242053430e+00 -1.8141605349523552e+01 0 0 0
3723 2 -6.3242784771354517e+00 -1.2103212355985749e+01 -1.9305951011498180e+01 0 0 0
662 1 -8.4361271976347485e+00 -1.0604240019121960e+01 -1.9681352995046826e+01 0 0 0
1649 1 -9.6564245823709332e+00 -1.1600822819749169e+01 -1.7793774351652523e+01 0 0 0
875 1 -9.2996197190468202e+00 -9.1437618245680579e+00 -1.7723262691991494e+01 0 0 0
4414 2 -7.2531819229811605e+00 -1.0774006015004145e+01 -1.7375783177940207e+01 0 0 0
1601 1 -6.1198496822420374e+00 -9.8228670328105938e+00 -1.9535255207982900e+01 0 0 0
2993 2 -4.9584297068618008e+00 -9.7521227217024755e+00 -1.7172220264184162e+01 0 0 0
3049 2 -4.1001554661754387e+00 -1.1208654672777971e+01 -1.9151458743628005e+01 0 0 0
3688 2 -3.7249984655632282e+00 -8.8107822763432644e+00 -1.9185769166823384e+01 0 0 0
646 1 -2.5090811091193501e+00 -8.7844261962360353e+00 -1.6883400997850565e+01 0 0 0
1607 1 -2.9303268019665647e+00 -1.1300728490071602e+01 -1.6856531610994729e+01 0 0 0
4781 2 1.3243406770006685e+00 -1.2111868223610486e+01 -1.6378742227642253e+01 0 0 0
2907 2 -1.6987620904804346e+00 -1.0311761135999889e+01 -1.8938233075526728e+01 0 0 0
4245 2 2.3180000385800961e-01 -1.1911396074612412e+01 -1.8618864862766983e+01 0 0 0
4400 2 8.3053051919082177e-01 -9.4576375493861899e+00 -1.8703424978878889e+01 0 0 0
3760 2 -4.7339517525049679e-01 -1.0537242485562352e+01 -1.6722415206297214e+01 0 0 0
3336 2 1.9354906849030700e+00 -9.6501970713393703e+00 -1.6418648504273545e+01 0 0 0
3289 2 4.4210523400238682e+00 -1.1509803013402850e+01 -2.0167277249041984e+01 0 0 0
135 1 2.6808347590437953e+00 -1.1099337411981107e+01 -1.8292433071730823e+01 0 0 0
1094 1 4.9821407064779004e+00 -1.0348734229067729e+01 -1.8063723841583620e+01 0 0 0
4609 2 3.0675848255255063e+00 -8.5369207259862030e+00 -1.8458727465783401e+01 0 0 0
2925 2 6.7166615395098610e+00 -1.0663190906875375e+01 -2.0071877466750362e+01 0 0 0
1999 1 8.9621356959268113e+00 -9.6534325879027918e+00 -1.9956131460932333e+01 0 0 0
1650 1 8.7225837508925981e+00 -1.2112165415714436e+01 -1.9592361644191111e+01 0 0 0
2435 1 7.0506244980332786e+00 -1.1899289677479508e+01 -1.7718113517437477e+01 0 0 0
1488 1 7.4176974606988830e+00 -9.4011391743093853e+00 -1.7872840076821397e+01 0 0 0
3274 2 9.3060898904424540e+00 -1.0867173546334397e+01 -1.7684094094133592e+01 0 0 0
1155 1 1.1641272830444217e+01 -9.9401504455383645e+00 -1.7700119192945031e+01 0 0 0
4693 2 1.1235618932809388e+01 -8.6871655982068425e+00 -1.9732739450008829e+01 0 0 0
4785 2 -1.5377763195793046e+01 -8.1372561215584742e+00 -1.6372221859157818e+01 0 0 0
2868 1 -1.7289821848976807e+01 -6.5249131056886256e+00 -1.6856695660978957e+01 0 0 0
2531 1 -1.4885824538837628e+01 -5.6252243461339990e+00 -1.6542582314497917e+01 0 0 0
1610 1 -1.5202457828228328e+01 -4.2243897884517390e+00 -1.8546904901842648e+01 0 0 0
77 1 -1.3248178346532455e+01 -6.0189227965056409e+00 -1.8535154022789989e+01 0 0 0
4290 2 -1.1299964356594021e+01 -7.6214381935659334e+00 -1.8092256706161994e+01 0 0 0
1846 1 -1.0952855400039230e+01 -5.1422237940195590e+00 -1.8040122154703329e+01 0 0 0
1279 1 -1.2803257925188872e+01 -7.2764045238937145e+00 -1.6060019423265455e+01 0 0 0
2581 1 -1.2628351673356862e+01 -4.8318605694724113e+00 -1.6459101407601249e+01 0 0 0
1004 1 -1.0069279355175228e+01 -6.4299532269867585e+00 -1.9858956632301968e+01 0 0 0
81 1 -6.8224894460013106e+00 -8.3185036219787616e+00 -1.7606922730732460e+01 0 0 0
31 1 -8.0970582938938218e+00 -8.1433371448985419e+00 -1.9662692437708284e+01 0 0 0
5001 2 -8.8970870003285789e+00 -6.6512435896276276e+00 -1.7722167138284451e+01 0 0 0
2102 1 -7.6685634708364514e+00 -5.6574087438256706e+00 -1.9784717272314897e+01 0 0 0
1640 1 -6.3601618540728513e+00 -5.7851656818953705e+00 -1.7564333950766507e+01 0 0 0
3522 2 -5.5610828233227068e+00 -7.3254043085170082e+00 -1.9656798771127431e+01 0 0 0
512 1 -4.5269176667159616e+00 -7.3311943513317006e+00 -1.7302682836594659e+01 0 0 0
5270 2 -4.1565744891416569e+00 -4.8096823136608071e+00 -1.7208753707993687e+01 0 0 0
4441 2 -5.2718780249558526e+00 -4.6561877751743559e+00 -1.9521176286754017e+01 0 0 0
3119 2 -3.2710536907634484e+00 -6.3226045459698437e+00 -1.9194369704591416e+01 0 0 0
3932 2 -2.1157577739710565e+00 -6.3404887285562710e+00 -1.6918851461278489e+01 0 0 0
1609 1 -1.4220058110015608e+00 -7.8348219238132391e+00 -1.8894929537410331e+01 0 0 0
1511 1 -9.4491366200353433e-01 -5.3342301888761376e+00 -1.9066927159998453e+01 0 0 0
4117 2 1.1003381005906396e+00 -6.9123026969076165e+00 -1.8705339632028227e+01 0 0 0
3354 2 1.8867397233671748e-01 -5.5240889037234409e+00 -1.6692000178316871e+01 0 0 0
3110 2 -1.8118507961450023e-01 -8.0199210908711667e+00 -1.6721295972214456e+01 0 0 0
1631 1 1.2827949639737939e+00 -4.5722998667923349e+00 -1.8757753325439339e+01 0 0 0
2971 2 3.4523310976736528e+00 -6.0866126710772237e+00 -1.8598515632178820e+01 0 0 0
2765 1 5.4137760615448602e+00 -7.6787816898118866e+00 -1.8271363233656611e+01 0 0 0
4303 2 2.1629915903881276e+00 -7.0702328202949838e+00 -1.6467711912565111e+01 0 0 0
4891 2 5.7290492222341785e+00 -5.0512056576735658e+00 -1.8305167801378126e+01 0 0 0
2898 1 4.6186786429588196e+00 -6.2709789190044845e+00 -1.6227888525219843e+01 0 0 0
2445 1 2.5639038584043758e+00 -4.6347464569862797e+00 -1.6599196311055461e+01 0 0 0
2237 1 9.3970042339943394e+00 -7.1245753870530182e+00 -1.9877183329868185e+01 0 0 0
2150 1 9.7739082040201843e+00 -4.5794065716649870e+00 -1.9933757820466052e+01 0 0 0
2359 1 9.5885186659093495e+00 -8.5317103753506096e+00 -1.7833776638341622e+01 0 0 0
5055 2 7.4416626308684046e+00 -5.4044698311281341e+00 -1.9984016229913930e+01 0 0 0
4548 2 7.6666675049976059e+00 -6.6052427010503179e+00 -1.7996686498976388e+01 0 0 0
4948 2 1.0186614947184975e+01 -5.9996164520768041e+00 -1.7788998066033141e+01 0 0 0
3226 2 1.1765368857837165e+01 -6.2880043858945545e+00 -1.9829598723368658e+01 0 0 0
5151 2 1.2146247592076039e+01 -7.4429978249168451e+00 -1.7588004570402692e+01 0 0 0
1443 1 1.2188386099319711e+01 -4.7250473348843203e+00 -1.7961930093700019e+01 0 0 0
333 1 1.4264609851876859e+01 -6.3719705700867104e+00 -1.7763211246696923e+01 0 0 0
5273 2 -1.4742822350566572e+01 -1.6606790367151245e+00 -1.8888207323424911e+01 0 0 0
5373 2 -1.6462094360547731e+01 -1.5437232359883588e+00 -1.6954803632005248e+01 0 0 0
871 1 -1.6859841602079264e+01 -4.1061346156876333e+00 -1.6865873487773513e+01 0 0 0
4485 2 -1.4518776964235737e+01 -3.0051280282457826e+00 -1.6607195701360091e+01 0 0 0
2305 1 -1.4058595278409436e+01 -4.5709268560186811e-01 -1.6752041171122254e+01 0 0 0
1115 1 -1.2884797941078366e+01 -3.3993566866700533e+00 -1.8492082716602319e+01 0 0 0
4779 2 -1.2274088492431215e+01 -8.4892243223663333e-01 -1.8406131852076658e+01 0 0 0
144 1 -1.0512919967388486e+01 -2.5198591698602408e+00 -1.8343285614521172e+01 0 0 0
3878 2 -1.2051391876112067e+01 -2.1527607185357498e+00 -1.6217743558604333e+01 0 0 0
262 1 -6.7720731866203447e+00 -4.4173417953613159e-01 -1.9838195313114927e+01 0 0 0
171 1 -7.2889298735588621e+00 -2.9466396298130118e+00 -1.9808109141533418e+01 0 0 0
1699 1 -8.3822779261145044e+00 -4.2172277737684851e+00 -1.7884160405746510e+01 0 0 0
1537 1 -7.9526704973985058e+00 -1.6096291065156083e+00 -1.7849331358819217e+01 0 0 0
1306 1 -6.0503236765113053e+00 -3.1958581926745668e+00 -1.7585795479719508e+01 0 0 0
2377 1 -9.8305695947301572e+00 -1.1883605342969126e+00 -1.6174599549545075e+01 0 0 0
3602 2 -4.9066007834780114e+00 -2.1214440905223308e+00 -1.9566410565511987e+01 0 0 0
750 1 -3.6763463438120390e+00 -2.2738618998292295e+00 -1.7331398584971623e+01 0 0 0
1509 1 -2.9724455749807577e+00 -3.8585889302361642e+00 -1.9211292269296262e+01 0 0 0
1398 1 -2.5484691590220661e+00 -1.2298672222028619e+00 -1.9325265157194391e+01 0 0 0
4757 2 -5.5959669367348495e+00 -5.8002681424528657e-01 -1.7655280865667571e+01 0 0 0
457 1 -6.3777784194616505e-01 -2.7610993691820243e+00 -1.9007974642501186e+01 0 0 0
648 1 -1.2974606006181275e+00 -1.2750461602032157e+00 -1.6974842763869212e+01 0 0 0
3254 2 -1.7626212489793616e+00 -3.8011413305070945e+00 -1.7050938225806494e+01 0 0 0
1530 1 6.0297815830739621e-01 -2.8966172058221717e+00 -1.6841298618093479e+01 0 0 0
513 1 1.7602392004060596e+00 -1.7642990852964300e+00 -1.8920873347317833e+01 0 0 0
610 1 3.6246192907548083e+00 -3.4615181372274733e+00 -1.8580129751143929e+01 0 0 0
13 1 4.0905773306847069e+00 -9.9620783974216176e-01 -1.8601919941207040e+01 0 0 0
1974 1 2.8991922962823256e+00 -2.0500655268301675e+00 -1.6645975835579630e+01 0 0 0
607 1 4.9102258764085098e+00 -3.5635664215515264e+00 -1.6407030554035178e+01 0 0 0
1397 1 5.4594630441613496e+00 -1.0900968827012059e+00 -1.6490789741308298e+01 0 0 0
204 1 8.0138363243795396e+00 -4.1095115048948871e+00 -1.8115665763421546e+01 0 0 0
5235 2 6.0167552518022980e+00 -2.4858679629916165e+00 -1.8469233423302835e+01 0 0 0
4324 2 8.3815322942902490e+00 -1.6208225045960689e+00 -1.8115855928548164e+01 0 0 0
2148 1 1.2558216615883298e+01 -9.0717634338321351e-01 -2.0123455590358311e+01 0 0 0
4452 2 1.0159825087417282e+01 -1.9329410552727186e+00 -1.9930927658277479e+01 0 0 0
572 1 1.1962314363033819e+01 -3.4989240679082063e+00 -2.0185087080093023e+01 0 0 0
66 1 1.0272888424933097e+01 -3.1713316629071144e+00 -1.7796676186650799e+01 0 0 0
302 1 1.2533174275151733e+01 -2.2467139346677034e+00 -1.7930591230146067e+01 0 0 0
4285 2 1.0786194754267052e+01 -4.9299060020984931e-01 -1.8013176804865964e+01 0 0 0
2171 1 1.4568335052995094e+01 -3.7820815092148337e+00 -1.7953738710902726e+01 0 0 0
1844 1 1.5030572169414247e+01 -1.4001201048373082e+00 -1.8091311075843514e+01 0 0 0
3833 2 6.2244142811180181e-01 -2.0964257913578209e+01 -1.3572202123212577e+01 0 0 0
959 1 -7.7520548432329557e+00 -1.7180928620355605e+01 -1.5016267770852878e+01 0 0 0
3281 2 -9.5539622729135196e+00 -1.6673528799655731e+01 -1.3227392675297985e+01 0 0 0
589 1 -7.6312937284446027e+00 -1.8156077532084609e+01 -1.2839054310764302e+01 0 0 0
4821 2 -5.8304919211768116e+00 -1.8677809170145853e+01 -1.4561743573428954e+01 0 0 0
2746 1 -3.3164195986313967e+00 -1.7877095204292011e+01 -1.4417365904804271e+01 0 0 0
1562 1 -5.0734634848286877e+00 -1.7393869230850857e+01 -1.2526431693343945e+01 0 0 0
4370 2 -5.6038792722699720e+00 -1.9862805697923530e+01 -1.2518389540615168e+01 0 0 0
3181 2 -3.1625780158089527e+00 -1.9023078090041377e+01 -1.2153430821326642e+01 0 0 0
215 1 -2.7207251783922919e+00 -1.6617225838566142e+01 -1.2389058523512100e+01 0 0 0
297 1 7.2172840706449370e-01 -1.7091654394089883e+01 -1.6006147079784832e+01 0 0 0
926 1 -1.1879357639410879e+00 -1.9453175946628786e+01 -1.3914215379891898e+01 0 0 0
4613 2 -9.0520995759325917e-01 -1.6876808097290098e+01 -1.4074252763002121e+01 0 0 0
2324 1 1.0279418584577662e+00 -1.8506973157273723e+01 -1.3878517751364257e+01 0 0 0
177 1 2.9090869652934632e+00 -2.0119288365432567e+01 -1.3227696678199774e+01 0 0 0
3233 2 3.2606207801058007e+00 -1.7554496994834750e+01 -1.3591668522425037e+01 0 0 0
5083 2 4.9654983325416353e+00 -1.7845935886943820e+01 -1.5308204198321487e+01 0 0 0
1800 1 5.3178026881790901e+00 -1.9126407069367325e+01 -1.3091694589571095e+01 0 0 0
3339 2 5.6547289453044955e+00 -1.6595803983954969e+01 -1.3336828738681447e+01 0 0 0
4072 2 3.0158839427572213e+00 -1.6404221558725670e+01 -1.5786358474765267e+01 0 0 0
3425 2 7.5708780168153940e+00 -1.8130254625655173e+01 -1.2710264110910368e+01 0 0 0
893 1 -1.1769073575872497e+01 -1.3897498720380588e+01 -1.5551747850313658e+01 0 0 0
3933 2 -1.3388325720108735e+01 -1.3510933017529441e+01 -1.3682893562865903e+01 0 0 0
3297 2 -1.1421355038277792e+01 -1.5222940523949010e+01 -1.3561306579285317e+01 0 0 0
3874 2 -1.1012367414532733e+01 -1.2725010088644979e+01 -1.3659394024920838e+01 0 0 0
4378 2 -9.6408335761827768e+00 -1.5436328823357734e+01 -1.5474359565336155e+01 0 0 0
637 1 -9.4257885323023576e+00 -1.2945491555312445e+01 -1.5600891187337908e+01 0 0 0
3108 2 -7.3834704961776421e+00 -1.4742758746562007e+01 -1.5232059367686118e+01 0 0 0
533 1 -9.0323181529527190e+00 -1.4220550932481846e+01 -1.3429323991676293e+01 0 0 0
1307 1 -6.6818821453954245e+00 -1.3313615780685037e+01 -1.3080330830156536e+01 0 0 0
1371 1 -7.0859505143465658e+00 -1.5756862739061095e+01 -1.3086555688683120e+01 0 0 0
319 1 -5.3038252618176198e+00 -1.6202768983786346e+01 -1.4726860135476732e+01 0 0 0
5162 2 -5.1008918585587963e+00 -1.3609370798719876e+01 -1.4981954792559044e+01 0 0 0
2945 2 -2.9984781361537016e+00 -1.5445767351421177e+01 -1.4427281654585911e+01 0 0 0
1030 1 -4.7037327597181919e+00 -1.4892450896522302e+01 -1.2665491085369329e+01 0 0 0
4551 2 -2.7995902558553740e+00 -1.2712017303206991e+01 -1.4731096574017650e+01 0 0 0
5136 2 -2.3944963834782094e+00 -1.4035914323005526e+01 -1.2419615267940577e+01 0 0 0
3234 2 -7.9452272641255073e-01 -1.4403826117001062e+01 -1.4353622449295175e+01 0 0 0
4480 2 1.3658456603532279e+00 -1.5903383272423582e+01 -1.3937786960976327e+01 0 0 0
4345 2 1.6027976356193978e+00 -1.3449459898147422e+01 -1.4081300031724728e+01 0 0 0
1334 1 3.9702218863120683e-03 -1.3118437584247204e+01 -1.2257174043410485e+01 0 0 0
3391 2 -2.2753346198124128e-01 -1.5593433997143256e+01 -1.2120348999398859e+01 0 0 0
5004 2 3.3748270288730078e+00 -1.3855797007721948e+01 -1.5849919283990804e+01 0 0 0
2920 2 3.7193778346082085e+00 -1.5116734891321300e+01 -1.3762594682444870e+01 0 0 0
2138 1 5.3476109577211695e+00 -1.5417214379981610e+01 -1.5616488939861359e+01 0 0 0
1203 1 3.9725951612102803e+00 -1.2544173483736561e+01 -1.3810069485325975e+01 0 0 0
2321 1 5.7537101501432053e+00 -1.2868377543881858e+01 -1.5702165630081829e+01 0 0 0
2612 1 5.9872118341704725e+00 -1.4123894016405529e+01 -1.3362780540852730e+01 0 0 0
4607 2 7.7379433838125609e+00 -1.4492457458478521e+01 -1.5406318133437663e+01 0 0 0
1241 1 8.5429412708421708e+00 -1.3350479613556965e+01 -1.3377378101111644e+01 0 0 0
509 1 7.9516571891129919e+00 -1.5779923728244983e+01 -1.3353343717568134e+01 0 0 0
1087 1 1.0175135288072770e+01 -1.3776206306017880e+01 -1.5317637026456527e+01 0 0 0
5216 2 1.2717981608514856e+01 -1.4030512467646114e+01 -1.3106236669151821e+01 0 0 0
1502 1 1.0238372285982182e+01 -1.5014626295328473e+01 -1.3125753485965568e+01 0 0 0
478 1 1.2464268085471389e+01 -1.2813634453812115e+01 -1.5267300325594931e+01 0 0 0
139 1 1.4929076862978089e+01 -1.2984267686056656e+01 -1.3422217437651302e+01 0 0 0
3404 2 -1.9016850459181889e+01 -9.8337403353128767e+00 -1.2392810192110929e+01 0 0 0
627 1 -1.5400317714966208e+01 -1.2048037950104892e+01 -1.4079794624563366e+01 0 0 0
4036 2 -1.7251736738881267e+01 -1.0150188564469044e+01 -1.4384733400809690e+01 0 0 0
4182 2 -1.4929224122882449e+01 -9.4502055233910447e+00 -1.4179320203963680e+01 0 0 0
348 1 -1.6765715411849712e+01 -8.9664472042780901e+00 -1.2348860178091371e+01 0 0 0
2047 1 -1.7131954627444117e+01 -1.1441916127129783e+01 -1.2318031824572284e+01 0 0 0
1581 1 -1.3312348376290885e+01 -9.5752874653264737e+00 -1.6016099720431882e+01 0 0 0
1582 1 -1.3732242926408562e+01 -1.2275031171136094e+01 -1.5847388507819515e+01 0 0 0
2610 1 -1.0986076664885903e+01 -8.7393569014852659e+00 -1.5712870284813661e+01 0 0 0
550 1 -1.3084614573806427e+01 -1.0954324045536856e+01 -1.3774841948636920e+01 0 0 0
1419 1 -1.1365331829615904e+01 -1.1306397450337043e+01 -1.5828945781642192e+01 0 0 0
44 1 -1.0713970961586375e+01 -1.0047060129020315e+01 -1.3759127382772286e+01 0 0 0
4025 2 -1.2665968370181641e+01 -8.5006484876313557e+00 -1.3834566493150605e+01 0 0 0
3396 2 -7.0563244188545875e+00 -1.2090144832360714e+01 -1.5188497926734918e+01 0 0 0
4794 2 -9.1095198650384503e+00 -1.0350835327677956e+01 -1.5656329338660438e+01 0 0 0
3015 2 -8.7315028723497097e+00 -1.1767255673701655e+01 -1.3402229040735742e+01 0 0 0
528 1 -6.5525885049271437e+00 -9.5068085574112562e+00 -1.5284437342360562e+01 0 0 0
781 1 -8.3982698822847830e+00 -9.2238666827796880e+00 -1.3489257122816014e+01 0 0 0
684 1 -6.2715938128798507e+00 -1.0792869748174171e+01 -1.3122594637471551e+01 0 0 0
3521 2 -4.3491905899627739e+00 -1.2271069496925193e+01 -1.2933891815826483e+01 0 0 0
1690 1 -4.6250603096072744e+00 -1.1071120843664669e+01 -1.5067870723590199e+01 0 0 0
3250 2 -3.8164614448676843e+00 -9.9354359771614451e+00 -1.2814493951155505e+01 0 0 0
209 1 -2.1777178003105724e+00 -1.0090546335487234e+01 -1.4795720391738316e+01 0 0 0
4067 2 -4.1324438016003961e+00 -8.5386772472799173e+00 -1.4958139377174486e+01 0 0 0
4680 2 -2.7369158530915699e-01 -1.1778213928984853e+01 -1.4542997622796479e+01 0 0 0
1394 1 1.2446823549230356e-01 -9.2502507218866530e+00 -1.4651179790642866e+01 0 0 0
3801 2 -1.8809806677087857e+00 -1.1547833939302832e+01 -1.2695418533464554e+01 0 0 0
3690 2 -1.6434224968973907e+00 -8.9359290254607835e+00 -1.2655227758629955e+01 0 0 0
3552 2 4.2558878275935375e-01 -1.0400550957743647e+01 -1.2265074203283266e+01 0 0 0
1635 1 4.0805012561964586e+00 -8.7365372425290211e+00 -1.6239950180284922e+01 0 0 0
3921 2 3.7747251742343098e+00 -1.1311544431019328e+01 -1.6145576996838450e+01 0 0 0
3497 2 2.1243517881757152e+00 -1.0957644275094109e+01 -1.4052554901257258e+01 0 0 0
4325 2 4.5882951179861911e+00 -1.0075653119829582e+01 -1.3871665309661230e+01 0 0 0
4341 2 2.5509812622122334e+00 -8.4320309896080587e+00 -1.4224854806244668e+01 0 0 0
2178 1 6.1235684728027246e+00 -1.0505650192652901e+01 -1.5826695365661450e+01 0 0 0
1504 1 6.8270234376272780e+00 -9.2088312129873398e+00 -1.3675403537741932e+01 0 0 0
4417 2 6.3964021813384830e+00 -1.1756162038734688e+01 -1.3607848419208596e+01 0 0 0
4690 2 8.1798149429937439e+00 -1.2048204739917566e+01 -1.5460349975309962e+01 0 0 0
1326 1 8.6695066491465003e+00 -9.6057635958664278e+00 -1.5633610741013584e+01 0 0 0
3200 2 8.8594652838511401e+00 -1.0819960527153061e+01 -1.3454345912975729e+01 0 0 0
205 1 1.0797569483571325e+01 -1.2436054564927186e+01 -1.3375049913233061e+01 0 0 0
5018 2 1.0558811938037181e+01 -1.1327731434533256e+01 -1.5607771389050663e+01 0 0 0
1683 1 1.1119417240576110e+01 -9.9411308907214124e+00 -1.3538027475823332e+01 0 0 0
3771 2 1.2900402490154798e+01 -1.0205315675328901e+01 -1.5515574056529443e+01 0 0 0
710 1 1.3044423193748148e+01 -1.1389235779255189e+01 -1.3456198143437220e+01 0 0 0
4369 2 1.3428677198823101e+01 -8.9426598099280348e+00 -1.3443893036562571e+01 0 0 0
3968 2 1.0968056949847737e+01 -8.4935504687621126e+00 -1.5571066983335172e+01 0 0 0
4731 2 1.5619320555577579e+01 -1.0648052851443543e+01 -1.3543705796419690e+01 0 0 0
4746 2 -1.8875812105864561e+01 -6.1334829968449105e+00 -1.4744101754279153e+01 0 0 0
1483 1 -2.0624045281571743e+01 -5.7567986920238328e+00 -1.2925041995511823e+01 0 0 0
3008 2 -1.8749937459452561e+01 -7.4538137894048795e+00 -1.2629777231171277e+01 0 0 0
1481 1 -1.8267179459309066e+01 -4.9625380958626257e+00 -1.2681353044513644e+01 0 0 0
2194 1 -1.6942588732384817e+01 -7.7747435746128302e+00 -1.4503601897364284e+01 0 0 0
2992 2 -1.6445803314756784e+01 -5.1938655823228501e+00 -1.4673891192510601e+01 0 0 0
1870 1 -1.4558105107463719e+01 -6.8497291030386025e+00 -1.4345548292777000e+01 0 0 0
1654 1 -1.6255336822451920e+01 -6.4667797979767245e+00 -1.2371633948009384e+01 0 0 0
3971 2 -1.4045039456640621e+01 -4.3103562592607174e+00 -1.4506011582921923e+01 0 0 0
1930 1 -1.0464019636081391e+01 -6.3549688269900821e+00 -1.5855649670539007e+01 0 0 0
5429 2 -1.2237792848414154e+01 -6.0564724002903398e+00 -1.4143134298138820e+01 0 0 0
907 1 -1.0134989467722116e+01 -7.4879695394769632e+00 -1.3690547682276451e+01 0 0 0
759 1 -9.7669165170928025e+00 -4.9398051248140185e+00 -1.3781109216046911e+01 0 0 0
4170 2 -8.0526386834289756e+00 -5.1711325051941994e+00 -1.5738841662859961e+01 0 0 0
1000 1 -8.3546402478611874e+00 -7.9456090333311007e+00 -1.5673710010451359e+01 0 0 0
162 1 -7.9337368595640445e+00 -6.6847732552166406e+00 -1.3572944661812526e+01 0 0 0
122 1 -6.1136292850092699e+00 -7.0314944020303054e+00 -1.5337559471438182e+01 0 0 0
4533 2 -5.8961375914193610e+00 -8.3167934887923494e+00 -1.3089697028640684e+01 0 0 0
755 1 -3.7775019614326508e+00 -6.0690452488637963e+00 -1.5134282572326677e+01 0 0 0
1413 1 -5.4810101860865386e+00 -5.6719211104062195e+00 -1.3302968110491960e+01 0 0 0
238 1 -3.0105513048989825e+00 -4.7106249597965002e+00 -1.2883238060897272e+01 0 0 0
3553 2 -3.5291883200398724e+00 -7.2236308870821233e+00 -1.2880698365979226e+01 0 0 0
4340 2 -5.7830110774406727e+00 -4.3446665419741208e+00 -1.5416669981760695e+01 0 0 0
2301 1 -1.8630457205109963e+00 -7.5897635436580169e+00 -1.4754108477945378e+01 0 0 0
3277 2 -1.4345798141240038e+00 -5.0459287151126455e+00 -1.4840716668447760e+01 0 0 0
28 1 5.4170215017408363e-01 -6.6757525835672187e+00 -1.4594168583976645e+01 0 0 0
2892 1 -1.1601202578575767e+00 -6.4613585866883581e+00 -1.2574634808574078e+01 0 0 0
4856 2 1.2911361225510614e+00 -5.3445086155700832e+00 -1.2418633511168217e+01 0 0 0
685 1 8.3567761278766861e-01 -7.9058532123332217e+00 -1.2496885637098011e+01 0 0 0
4260 2 2.8786329290613031e+00 -5.7127052291443778e+00 -1.4400682130963432e+01 0 0 0
4396 2 4.9489085251947156e+00 -7.4980039563053840e+00 -1.4045761632416571e+01 0 0 0
3005 2 5.3673985041436438e+00 -4.9597357478282111e+00 -1.4204353838153896e+01 0 0 0
2834 1 3.5805181975932134e+00 -4.5218000406341359e+00 -1.2336834337426918e+01 0 0 0
1592 1 3.2129662330747335e+00 -6.9835030077239209e+00 -1.2226761605773428e+01 0 0 0
2505 1 9.1236009946623113e+00 -8.3404977639546782e+00 -1.3659021839377237e+01 0 0 0
1055 1 6.9725445144844649e+00 -5.3008019410141269e+00 -1.6019268893977380e+01 0 0 0
3792 2 6.5610607243675716e+00 -8.0496994566447597e+00 -1.5990448196139280e+01 0 0 0
4102 2 9.0482572569046056e+00 -7.0246369759554943e+00 -1.5906358802042764e+01 0 0 0
4038 2 7.2527124391828819e+00 -6.7862899595079549e+00 -1.3915260402799882e+01 0 0 0
4065 2 9.5186131889610444e+00 -5.7486258471927227e+00 -1.3754984853846889e+01 0 0 0
1715 1 1.1408359888647700e+01 -6.0215280604754930e+00 -1.5724136631324109e+01 0 0 0
2225 1 1.1455963615259950e+01 -7.2279524065496590e+00 -1.3631257428664195e+01 0 0 0
4050 2 1.3405679943701953e+01 -7.8104629073735419e+00 -1.5678371971236393e+01 0 0 0
3175 2 1.1813032233047116e+01 -4.6418672460498831e+00 -1.3658314939022889e+01 0 0 0
325 1 1.3670688887969854e+01 -5.0736645217595884e+00 -1.5716006459560250e+01 0 0 0
1711 1 1.3700527274327028e+01 -6.3574132186595449e+00 -1.3626661869002847e+01 0 0 0
735 1 1.5663881701928856e+01 -6.6971162290412307e+00 -1.5925998773288745e+01 0 0 0
5288 2 1.5673324860457079e+01 -8.0160110794220145e+00 -1.3554419761688932e+01 0 0 0
3235 2 1.5922246901486567e+01 -5.4568739600105873e+00 -1.3743533077870277e+01 0 0 0
3207 2 1.7855320979617670e+01 -5.5982907786224345e+00 -1.5757455645429758e+01 0 0 0
5371 2 1.7835868685620301e+01 -7.0599375696054150e+00 -1.3833430684325707e+01 0 0 0
4256 2 2.0086851129584705e+01 -6.0588414217227715e+00 -1.3646389295994837e+01 0 0 0
1615 1 1.8348136236068349e+01 -4.4638900403632942e+00 -1.3606473540944753e+01 0 0 0
4689 2 -1.8456042065946907e+01 -3.6732633422785663e+00 -1.4982134271538699e+01 0 0 0
1956 1 -1.9821292811481623e+01 -6.2994030740432883e-01 -1.3031598469810955e+01 0 0 0
857 1 -2.0074294974041948e+01 -3.1993934036892586e+00 -1.3199292591000271e+01 0 0 0
1514 1 -1.8117214150578359e+01 -1.2046969758907966e+00 -1.4953301290699571e+01 0 0 0
1748 1 -1.5850590397312651e+01 -4.0449528504417245e+00 -1.2473275417858559e+01 0 0 0
2959 2 -1.6110514212748377e+01 -2.7846480817850821e+00 -1.4730397635164019e+01 0 0 0