LAMMPS data file via write_data, version 12 Dec 2018, timestep = 2410000

5473 atoms
2 atom types

-2.5079589554984580e+01 2.6085410207312311e+01 xlo xhi
-2.3390117086581586e+01 2.4452775438140197e+01 ylo yhi
-2.4630467195767576e+01 2.6689451845902326e+01 zlo zhi

Masses

1 63.5
2 63.5

Atoms # atomic

1631 1 -3.2477786768821977e+00 -1.1990460119286046e+01 -2.1466985680605696e+01 0 0 0
941 1 -5.5760294180666321e+00 -7.5733902990246040e+00 -2.2402874875229781e+01 0 0 0
5228 2 -6.6115782359966735e+00 -9.3651926179530474e+00 -2.0879286529422011e+01 0 0 0
3113 2 -4.3844556891570408e+00 -9.7677216130818163e+00 -2.1950952121453753e+01 0 0 0
4512 2 -2.3257592605036979e+00 -1.0501978555105376e+01 -2.3082440239627537e+01 0 0 0
558 1 -3.4084030851936853e+00 -8.0837100802001789e+00 -2.3693961103765012e+01 0 0 0
3333 2 -3.4379749253210194e+00 -7.5502326878227493e+00 -2.1132189709363846e+01 0 0 0
3222 2 -2.1249151459953715e+00 -9.8026663833215739e+00 -2.0643260935990327e+01 0 0 0
2175 1 -1.3170417803377668e+00 -8.0276134344255006e+00 -2.2455661349276333e+01 0 0 0
4458 2 6.1386730203373062e-02 -1.0180462432832446e+01 -2.2078626938474375e+01 0 0 0
4829 2 9.9284500487999117e-01 -8.4380376895574152e+00 -2.3892003700954863e+01 0 0 0
4519 2 1.0765156494673080e+00 -8.0295040853560007e+00 -2.1370499389222932e+01 0 0 0
504 1 3.2645593287572021e+00 -8.4999455532802930e+00 -2.2551622644630378e+01 0 0 0
4171 2 5.4600703971451114e+00 -8.4035613685669439e+00 -2.1408583548806863e+01 0 0 0
3419 2 2.2880979614564110e+00 -1.0249830069396173e+01 -2.1008197592208276e+01 0 0 0
1698 1 -7.8866628187362933e+00 -7.1391585143766658e+00 -2.1102720686378454e+01 0 0 0
3042 2 -9.1800600250645381e+00 -4.9359327184146471e+00 -2.1500662296836598e+01 0 0 0
1863 1 -6.9751049118127808e+00 -5.3957297157449586e+00 -2.2774314022181002e+01 0 0 0
1984 1 -8.1118046575189791e+00 -3.2419583358026363e+00 -2.2954722588475125e+01 0 0 0
1127 1 -4.6517181427203598e+00 -5.7936577056377487e+00 -2.3984065554520772e+01 0 0 0
4960 2 -4.7270072982427758e+00 -5.4455364308483665e+00 -2.1631979789071686e+01 0 0 0
4476 2 -2.3951903154427407e+00 -5.8484806495521973e+00 -2.2827070642611101e+01 0 0 0
521 1 -3.6453928170646086e+00 -3.6873175739583890e+00 -2.3196450393910734e+01 0 0 0
1514 1 -1.7022271067918966e+00 -4.0383184560493222e+00 -2.4368475219677947e+01 0 0 0
271 1 -1.4569797301083554e+00 -3.5625976514675965e+00 -2.1984334682139501e+01 0 0 0
341 1 -1.9745988888131616e-01 -6.3193196125680036e+00 -2.4264324211456220e+01 0 0 0
1612 1 -1.5913620910520374e-01 -5.8093544570037796e+00 -2.1743474097551346e+01 0 0 0
2056 1 2.0113319351982288e+00 -6.1523761196298157e+00 -2.3145309795928227e+01 0 0 0
4164 2 4.1264239766530320e-01 -3.9878291717889143e+00 -2.3307444603271229e+01 0 0 0
5460 2 6.8765821014514950e-01 -3.6947273136284760e+00 -2.0717297986519299e+01 0 0 0
1576 1 2.8526595857528116e+00 -4.0818525354172888e+00 -2.2228354335554396e+01 0 0 0
3293 2 4.2046499644794553e+00 -6.2446328336821111e+00 -2.2006577248574903e+01 0 0 0
1708 1 5.1346161021084535e+00 -4.0148807974405880e+00 -2.1182304826836106e+01 0 0 0
5284 2 9.5539243161657623e+00 -4.4424599065817283e+00 -2.1091300771037243e+01 0 0 0
1819 1 -9.7889499240383522e+00 -1.5843403317246965e+00 -2.1842001298233491e+01 0 0 0
2545 1 -1.1499270746869945e+01 1.5077507171123253e-01 -2.1047208174968887e+01 0 0 0
998 1 -5.9112603048305505e+00 -3.1975475754371607e+00 -2.1934654718256258e+01 0 0 0
4336 2 -7.3446163640665478e+00 -1.0682236207150047e+00 -2.2110304665491476e+01 0 0 0
2449 1 -5.1740633039516295e+00 -1.5360335139764116e+00 -2.3517166075062647e+01 0 0 0
4556 2 -2.9239139681076889e+00 -1.5025872242595928e+00 -2.2365601268024164e+01 0 0 0
4507 2 -5.0515966801140850e+00 -9.1368429111143812e-01 -2.1059577559951236e+01 0 0 0
4843 2 -2.2777737042827821e+00 4.5821217447316731e-01 -2.4010672089308994e+01 0 0 0
3969 2 -8.7397123256603992e-01 -1.8835103047218824e+00 -2.3606335026253703e+01 0 0 0
1689 1 1.4892322008582080e+00 -1.8154972585456288e+00 -2.2501014907516293e+01 0 0 0
2268 1 -6.7768759869350148e-01 -1.3310696612927655e+00 -2.1192071435330714e+01 0 0 0
2046 1 1.2675893232332927e-01 2.3443297750829209e-01 -2.2899107840775624e+01 0 0 0
3287 2 2.4843192554771147e+00 4.5244398206120745e-01 -2.1786112006585249e+01 0 0 0
5093 2 3.7687311423809451e+00 -1.9004691720673645e+00 -2.1388260340617368e+01 0 0 0
1462 1 4.5563750744531148e+00 2.1116037114858013e-01 -2.3109260891137623e+01 0 0 0
1885 1 6.0478607854222988e+00 -1.9894131731621201e+00 -2.2656065823683136e+01 0 0 0
1896 1 8.3015493930130866e+00 -2.0861144601547625e+00 -2.1379042849755237e+01 0 0 0
2266 1 6.8861757695046473e+00 2.1211960092776097e-01 -2.1711314732008365e+01 0 0 0
427 1 1.9480493034636432e+00 -1.5459410570109286e+01 -1.7185046061884648e+01 0 0 0
1696 1 -1.0385688541885001e+01 -1.2828906589495636e+01 -1.8736033528570868e+01 0 0 0
1693 1 -1.2615846156754628e+01 -1.2245821707206050e+01 -1.7515683993798341e+01 0 0 0
1883 1 -9.0850131031933365e+00 -1.4990522994831494e+01 -1.8270908360022020e+01 0 0 0
3054 2 -8.2457061617529188e+00 -1.3104731594423914e+01 -1.9922841862827315e+01 0 0 0
3265 2 -8.2372493384597405e+00 -1.2798636769936353e+01 -1.7415491872648879e+01 0 0 0
5202 2 -6.0875020821699781e+00 -1.3405348934543637e+01 -1.8709532512455358e+01 0 0 0
624 1 -7.0044591153236251e+00 -1.4978287780006442e+01 -1.6933972045765486e+01 0 0 0
4343 2 -2.5628769690946687e+00 -1.5561751803369095e+01 -1.7062507308053675e+01 0 0 0
4486 2 -4.7189341722257696e+00 -1.5446340252324175e+01 -1.8263584604009534e+01 0 0 0
4866 2 -3.8646867624518468e+00 -1.3793200836821603e+01 -2.0006376017437294e+01 0 0 0
524 1 -3.7340513309416155e+00 -1.3271467947391244e+01 -1.7488024403741058e+01 0 0 0
5301 2 -5.3788640177119751e+00 -1.1419660237499645e+01 -2.0316017606841577e+01 0 0 0
5053 2 -1.7842855868979313e+00 -1.3846926837038678e+01 -1.8777345845735951e+01 0 0 0
3774 2 -7.6799083382361832e-01 -1.1864216865514887e+01 -2.0317940359164442e+01 0 0 0
3844 2 3.4810194079353290e-01 -1.3564867540963764e+01 -1.7593926517235545e+01 0 0 0
1942 1 1.3338567596630138e+00 -1.2139626388332015e+01 -1.9267418691593480e+01 0 0 0
3159 2 -8.8018778271904352e-01 -1.1248543706795427e+01 -1.7898851908670125e+01 0 0 0
1002 1 5.0145086484078760e+00 -1.3870266263323160e+01 -1.7551251384286939e+01 0 0 0
1855 1 3.7011336114080593e+00 -1.1712553094781635e+01 -1.8118486715545060e+01 0 0 0
3862 2 5.9700855896925766e+00 -1.1683732411490611e+01 -1.6973116842898932e+01 0 0 0
2355 1 8.1531400180754527e+00 -1.2386320977961061e+01 -1.8080769293862318e+01 0 0 0
1361 1 -1.3359665115839926e+01 -9.0281997277699766e+00 -1.8096376313161262e+01 0 0 0
1362 1 -1.0736885790493336e+01 -8.7181277957000773e+00 -2.0607368174094994e+01 0 0 0
1805 1 -1.1650376438611934e+01 -1.0662006499921397e+01 -1.9050868682094887e+01 0 0 0
4011 2 -1.0668128887072148e+01 -8.5225556045506323e+00 -1.8176570234451720e+01 0 0 0
423 1 -9.6160681338654967e+00 -1.1019183842247809e+01 -2.0381735189317187e+01 0 0 0
3633 2 -9.4050632495365907e+00 -1.0621482882041246e+01 -1.7847625639586784e+01 0 0 0
3883 2 -7.4958183824196674e+00 -1.0957312111108342e+01 -1.9238037474887836e+01 0 0 0
2138 1 -8.5327135109155297e+00 -8.8432910603074788e+00 -1.9305761534053545e+01 0 0 0
3402 2 -6.2285801431883376e+00 -8.7357517695089459e+00 -1.8297345673567673e+01 0 0 0
1656 1 -8.4836016713057809e+00 -8.2398226931057028e+00 -1.6810967162716697e+01 0 0 0
893 1 -2.9850463302608765e+00 -1.1489740286224668e+01 -1.9044825802989585e+01 0 0 0
3383 2 -5.1400501248455344e+00 -1.1005470359103597e+01 -1.7907321517391885e+01 0 0 0
3345 2 -4.3776202637099431e+00 -9.3267120837253010e+00 -1.9582192229877467e+01 0 0 0
2669 1 -2.0996434109943292e+00 -9.0301699843581424e+00 -1.8304837498566968e+01 0 0 0
4147 2 -4.2541327628620333e+00 -8.7660703990707098e+00 -1.6918626597301383e+01 0 0 0
5209 2 -3.0123153500228259e+00 -1.0955108338387095e+01 -1.6661594813822454e+01 0 0 0
4126 2 2.0292011754516676e-01 -9.7177375286026351e+00 -1.9633526915005415e+01 0 0 0
4804 2 3.0559602878295139e-01 -9.2318439304931310e+00 -1.7132201575769102e+01 0 0 0
232 1 1.0841177099609387e+00 -7.4627214961525841e+00 -1.8939090734335842e+01 0 0 0
4661 2 -1.1984616726459674e+00 -7.4684876366427089e+00 -2.0107255588234857e+01 0 0 0
79 1 2.4166674966859745e+00 -9.6642118232322911e+00 -1.8509455733706741e+01 0 0 0
2478 1 4.5937087533980412e+00 -1.0092210996754430e+01 -1.9755704647858352e+01 0 0 0
1264 1 4.7073923472273664e+00 -9.5651209413113030e+00 -1.7252509736071080e+01 0 0 0
2775 1 3.2353246272362477e+00 -8.0846954281175929e+00 -2.0084507429073309e+01 0 0 0
3107 2 5.5111567019901528e+00 -7.8192381944950391e+00 -1.8930130527743380e+01 0 0 0
5183 2 3.2403510502900130e+00 -7.4049193464143261e+00 -1.7593919598484682e+01 0 0 0
2201 1 6.7832686543860232e+00 -1.0116648030256588e+01 -1.8653331655570792e+01 0 0 0
4187 2 7.6451091548608785e+00 -8.2280939720943529e+00 -2.0276507038382515e+01 0 0 0
4965 2 7.6032495836707747e+00 -7.8263648762738214e+00 -1.7679617010773832e+01 0 0 0
3034 2 9.0243546314416161e+00 -1.0024187867326289e+01 -1.7300572874402331e+01 0 0 0
4309 2 9.6361536958647331e+00 -8.1493314027306436e+00 -1.8963627993026076e+01 0 0 0
942 1 1.1928933853716114e+01 -8.0519178839149692e+00 -1.7691045237404396e+01 0 0 0
4022 2 -1.4098709483654948e+01 -5.4161528516142203e+00 -1.8601401317422688e+01 0 0 0
392 1 -1.5733931066752040e+01 -3.6951306178226879e+00 -1.7569724635849948e+01 0 0 0
68 1 -1.3336394233876494e+01 -3.5494932548506610e+00 -2.0091174413568581e+01 0 0 0
3317 2 -1.2595077029263436e+01 -7.1427107567992136e+00 -1.9462556547067418e+01 0 0 0
3669 2 -1.1675544206932022e+01 -4.9296367891634993e+00 -1.8588827415338756e+01 0 0 0
2135 1 -1.0112041017141101e+01 -6.5567692430620648e+00 -1.9633846204632302e+01 0 0 0
1381 1 -9.9316659532564540e+00 -6.1580964889374989e+00 -1.7242455444437702e+01 0 0 0
5178 2 -1.2290397477347257e+01 -6.8335810158780035e+00 -1.7027799153031317e+01 0 0 0
3678 2 -6.9522389676727361e+00 -4.9148035190813717e+00 -2.0326748933933484e+01 0 0 0
170 1 -9.0661950462391268e+00 -4.5112569558198485e+00 -1.8791429605351574e+01 0 0 0
93 1 -7.6937483047296533e+00 -6.5702257191921420e+00 -1.8594607218427342e+01 0 0 0
3362 2 -6.7038635291717137e+00 -4.3787384948560613e+00 -1.7849092320984340e+01 0 0 0
3288 2 -5.6502707974536532e+00 -7.0170755830516951e+00 -1.9946583520652336e+01 0 0 0
1475 1 -5.4960255408343777e+00 -6.5254563443181244e+00 -1.7396553321838248e+01 0 0 0
3253 2 -3.4148658924199879e+00 -7.0119384222179555e+00 -1.8751349887239822e+01 0 0 0
3931 2 -2.4571732169055656e+00 -5.2538827983293732e+00 -2.0501009835243806e+01 0 0 0
5329 2 -4.4695678033804294e+00 -4.9316849797629700e+00 -1.9160497167674922e+01 0 0 0
4682 2 -2.3923174818827002e+00 -4.8469752276034406e+00 -1.7862689806729385e+01 0 0 0
407 1 2.0775353294160310e+00 -5.7722245126810696e+00 -2.0457314465468077e+01 0 0 0
457 1 -1.0815383554040601e+00 -6.9929109206965236e+00 -1.7396208569059851e+01 0 0 0
420 1 -2.1741230589475136e-01 -5.2876385511808817e+00 -1.9132194183073061e+01 0 0 0
1548 1 2.0566063848560892e+00 -5.1517495945043548e+00 -1.8083301135324128e+01 0 0 0
4324 2 4.3305459967444770e+00 -5.6503388258658092e+00 -1.9377453662554775e+01 0 0 0
1012 1 5.1942326540579407e+00 -3.4472439626038351e+00 -1.8587500260939532e+01 0 0 0
3956 2 2.9253413476355701e+00 -3.5835792866267782e+00 -1.9666772176778380e+01 0 0 0
4912 2 6.4227812587057613e+00 -6.1857458957614142e+00 -2.0748564338341730e+01 0 0 0
1655 1 6.4695995845890399e+00 -5.6031662715056241e+00 -1.8094467982674068e+01 0 0 0
1088 1 7.4232450519433728e+00 -3.7655374430714512e+00 -1.9951283672701027e+01 0 0 0
2128 1 8.5226858156284777e+00 -5.9399386166350228e+00 -1.9351909050551455e+01 0 0 0
4732 2 9.5434009999812535e+00 -3.8393397294358933e+00 -1.8619151640433593e+01 0 0 0
174 1 7.4816051432573936e+00 -3.3728594407023222e+00 -1.7288327031956072e+01 0 0 0
4369 2 8.6149282046662332e+00 -5.6704435660164600e+00 -1.6811559071945275e+01 0 0 0
2717 1 1.0769329181294216e+01 -5.9112796481136334e+00 -1.8278337451530927e+01 0 0 0
3204 2 1.1794674094018324e+01 -4.0350923191147103e+00 -1.9688561552662648e+01 0 0 0
2542 1 1.1807577643746237e+01 -3.7412978815725366e+00 -1.7311258797493021e+01 0 0 0
2497 1 1.3171297931483243e+01 -5.7165695455532042e+00 -1.7006898714858337e+01 0 0 0
2537 1 1.4013815038788415e+01 -4.1644513335429547e+00 -1.8493936097172679e+01 0 0 0
1398 1 -1.4801886891438505e+01 -1.7459269934037285e+00 -1.8995730024413145e+01 0 0 0
4048 2 -1.3966866910651275e+01 4.1196547907980985e-01 -1.8347522529266062e+01 0 0 0
3946 2 -1.4697399779827995e+01 -1.4113809555556200e+00 -1.6715386580153162e+01 0 0 0
5205 2 -1.0563175523355913e+01 -3.1819159270679314e+00 -2.0165233345047994e+01 0 0 0
1870 1 -1.3191931638924769e+01 -3.2280009135018637e+00 -1.7613279040531644e+01 0 0 0
650 1 -1.2354553276185849e+01 -1.3727974656565618e+00 -1.9288464258146281e+01 0 0 0
788 1 -1.0509586240498162e+01 -2.6639387531487508e+00 -1.7658250605426844e+01 0 0 0
14 1 -9.7403661159619297e+00 -1.0268702648172765e+00 -1.9449849532731470e+01 0 0 0
2226 1 -1.2216663352865798e+01 -1.0818040658860542e+00 -1.6855089488374155e+01 0 0 0
1940 1 -9.6300319365509157e+00 -3.6286411053833484e-01 -1.7186565316849606e+01 0 0 0
1558 1 -8.0948132010819727e+00 -2.8222781153498504e+00 -2.0503680372472139e+01 0 0 0
2189 1 -7.9803049901864087e+00 -2.3424577232395767e+00 -1.8089816005251116e+01 0 0 0
3086 2 -7.3383447559238482e+00 -5.1812352046607357e-01 -1.9769078010575754e+01 0 0 0
4478 2 -7.2554955517923521e+00 -6.2354067169841175e-02 -1.7182916841600079e+01 0 0 0
4789 2 -5.8559412411552492e+00 -2.6912980339263299e+00 -1.9468974942469952e+01 0 0 0
772 1 -5.7000670548935304e+00 -2.2713733625288772e+00 -1.6969367298897627e+01 0 0 0
3202 2 -3.7739040417559870e+00 -3.1683989199412803e+00 -2.0771297992155482e+01 0 0 0
2731 1 -4.9609744511594922e+00 -3.7701929738713286e-01 -1.8417901096355507e+01 0 0 0
3097 2 -3.5765990110545802e+00 -2.6942784056931770e+00 -1.8289253481859099e+01 0 0 0
2928 2 -2.7772033584675597e+00 -9.4840923665314270e-01 -1.9781898886797663e+01 0 0 0
3434 2 -2.7239678011876740e+00 -3.5808279493342976e-01 -1.7399233141841357e+01 0 0 0
1105 1 -1.5363532003370075e+00 -3.0208745800136381e+00 -1.9466445760259322e+01 0 0 0
767 1 -1.3450729899511635e+00 -2.6694168246971119e+00 -1.7136962717602540e+01 0 0 0
5082 2 8.0201801350634438e-01 -3.0319400944559973e+00 -1.8302261618182502e+01 0 0 0
1354 1 -6.1195161294231815e-01 -8.1753026328125233e-01 -1.8734432807897459e+01 0 0 0
1609 1 1.5544382890955197e+00 -1.3341225493402571e+00 -1.9955861067182937e+01 0 0 0
329 1 1.6901664663376967e+00 -8.2481315831926116e-01 -1.7459547839036116e+01 0 0 0
3894 2 3.0617615279700234e+00 -3.0997373323878645e+00 -1.7175792749259159e+01 0 0 0
3643 2 3.8746330000834037e+00 -1.2596105329239322e+00 -1.8953782550129176e+01 0 0 0
269 1 6.0939132908615079e+00 -1.7603849490061703e+00 -2.0188880323624502e+01 0 0 0
1661 1 6.0904402145706538e+00 -1.3333448331398674e+00 -1.7608494939189509e+01 0 0 0
2964 2 4.7119125073002008e+00 5.0694557087757031e-01 -2.0565406025509695e+01 0 0 0
4920 2 9.2449291996031899e+00 2.2000098996113607e-01 -2.0665882298368253e+01 0 0 0
857 1 8.5027178498752800e+00 -1.6458863770444867e+00 -1.8947369898000314e+01 0 0 0
1950 1 2.2627090262522874e+01 -3.2566085012876278e+00 5.8800041634056965e-01 0 0 0
4037 2 1.0742020946955851e+01 -1.9195013994064329e+00 -2.0275377609495226e+01 0 0 0
2613 1 1.0711175935243999e+01 -1.6165788817083699e+00 -1.7882518495504673e+01 0 0 0
105 1 1.2931573325829278e+01 -1.9652193147431847e+00 -1.8975575325099488e+01 0 0 0
3580 2 1.3543061875854647e+01 2.9772621725779741e-01 -1.8011281606798583e+01 0 0 0
2967 2 1.1402379465042598e+01 2.5502344544212580e-01 -1.9340534631145154e+01 0 0 0
471 1 1.4980219198850225e+01 -1.7031075676232013e+00 -1.7817631777005317e+01 0 0 0
1318 1 -1.4275506388612714e+01 -1.5729422156733465e+01 -1.3971139052072493e+01 0 0 0
542 1 -1.0193761530777984e+01 -1.6689464793835974e+01 -1.6528182098770888e+01 0 0 0
1748 1 -1.3091601713072757e+01 -1.7798243673621212e+01 -1.3574297200310316e+01 0 0 0
2656 1 -1.2239543876119246e+01 -1.6167017197206139e+01 -1.5361372370365318e+01 0 0 0
4826 2 -1.0055542793052448e+01 -1.6195979773292741e+01 -1.4085936013621604e+01 0 0 0
800 1 -7.8835872270741829e+00 -1.6587788140535647e+01 -1.5363768042127637e+01 0 0 0
1544 1 -8.6665567056126687e+00 -1.8503149457029696e+01 -1.3655479484846134e+01 0 0 0
1384 1 -5.5708832663294050e+00 -1.6872781177612996e+01 -1.4183210204459739e+01 0 0 0
3653 2 -5.7031802078586464e+00 -1.7143731236034068e+01 -1.6691914975100087e+01 0 0 0
1316 1 -2.0014265232381159e+00 -1.9097651622191467e+01 -1.5152326625624170e+01 0 0 0
1174 1 -3.4278583199828621e+00 -1.7015821330499467e+01 -1.5412993872520300e+01 0 0 0
829 1 -4.1806698273352438e+00 -1.9003986061002891e+01 -1.3868485518922579e+01 0 0 0
849 1 1.8931702515027851e-01 -1.9080194295052205e+01 -1.3888561416390246e+01 0 0 0
684 1 -1.1318334168927420e+00 -1.7035892233254671e+01 -1.4396689897285846e+01 0 0 0
2092 1 9.8042648273418387e-01 -1.7215948212129689e+01 -1.5744907628551822e+01 0 0 0
522 1 1.1760635640630239e+00 -1.6894452366820186e+01 -1.3260970310125863e+01 0 0 0
5161 2 3.1460651461938993e+00 -1.7465658066325197e+01 -1.4445475328565418e+01 0 0 0
1688 1 5.6413167668334303e+00 -1.7432677238278522e+01 -1.3255398782125994e+01 0 0 0
761 1 4.0454818461046562e+00 -1.5579752466384900e+01 -1.5991554890121801e+01 0 0 0
546 1 6.2753325790453021e+00 -1.5622363271661087e+01 -1.4900766947311256e+01 0 0 0
165 1 8.6437462050744838e+00 -1.5427001221890025e+01 -1.3760093996173577e+01 0 0 0
866 1 -1.5119642685804905e+01 -1.2313257397399171e+01 -1.4690113440847535e+01 0 0 0
1610 1 -1.3440800441256963e+01 -1.4015851429522636e+01 -1.5813898116311366e+01 0 0 0
30 1 -1.3353226132954404e+01 -1.3450659532211359e+01 -1.3312031375478233e+01 0 0 0
2093 1 -1.1357490645217537e+01 -1.4567190128633378e+01 -1.7097227308784994e+01 0 0 0
3061 2 -1.1304556668503954e+01 -1.4015797436191317e+01 -1.4543307606700500e+01 0 0 0
2625 1 -1.0394375954871114e+01 -1.2374416729311013e+01 -1.6241420117528978e+01 0 0 0
2052 1 -1.2462827239864271e+01 -1.1809815610737767e+01 -1.4941459366195392e+01 0 0 0
1288 1 -1.0261724206510005e+01 -1.1930917745392787e+01 -1.3616824851593295e+01 0 0 0
897 1 -9.2759310015234515e+00 -1.4493454439558372e+01 -1.5932313809196346e+01 0 0 0
3694 2 -6.8223676030659997e+00 -1.4473333230388114e+01 -1.4404573912502881e+01 0 0 0
4571 2 -8.1455118829969990e+00 -1.2396918847057265e+01 -1.4931683368470756e+01 0 0 0
2325 1 -6.0581463620825362e+00 -1.2764641891395922e+01 -1.6319789068720581e+01 0 0 0
4576 2 -6.0334298855185748e+00 -1.2254751361576760e+01 -1.3741198292833857e+01 0 0 0
5440 2 -9.0575097039469536e+00 -1.4145421583475603e+01 -1.3228967508807052e+01 0 0 0
2812 1 -4.7827884289845741e+00 -1.4918874494565081e+01 -1.5670968844683443e+01 0 0 0
605 1 -3.7934939793397278e+00 -1.2706853144048605e+01 -1.5037235725141066e+01 0 0 0
99 1 -4.5119164564320826e+00 -1.4559429050071989e+01 -1.3256982171824722e+01 0 0 0
4009 2 -2.3607636909682768e+00 -1.4823866425963885e+01 -1.4575295877559894e+01 0 0 0
5033 2 1.9364003289578131e+00 -1.5113914410575703e+01 -1.4765220328154872e+01 0 0 0
3961 2 -1.6808338555629700e+00 -1.3124485854951711e+01 -1.6292340507494270e+01 0 0 0
3441 2 -2.6211477629998892e-01 -1.5170077079429156e+01 -1.6076225708725545e+01 0 0 0
1577 1 -1.4942830615714442e+00 -1.2671162876345004e+01 -1.3777901973097105e+01 0 0 0
3482 2 7.4924272528478342e-01 -1.2904464151580267e+01 -1.5131502967517319e+01 0 0 0
4855 2 -1.4814015417019130e-01 -1.4794498975147025e+01 -1.3372092250037577e+01 0 0 0
4257 2 2.8574759785302564e+00 -1.3418951917225497e+01 -1.6440586340389796e+01 0 0 0
404 1 4.1451111846472184e+00 -1.5233028915002949e+01 -1.3560192982836057e+01 0 0 0
4366 2 2.8103522191720569e+00 -1.2894744298513878e+01 -1.3957613260345537e+01 0 0 0
1018 1 5.0609592026220076e+00 -1.3380364732269216e+01 -1.5131444767556651e+01 0 0 0
2975 2 7.1540669279695166e+00 -1.3958198152788443e+01 -1.6473178852132680e+01 0 0 0
4229 2 7.2329425289858129e+00 -1.3571617703879381e+01 -1.4058885196788481e+01 0 0 0
4633 2 9.4335332714547953e+00 -1.3910101671037344e+01 -1.5400647639238779e+01 0 0 0
2544 1 8.2378187816833659e+00 -1.1895225048321745e+01 -1.5635680686729765e+01 0 0 0
2615 1 1.1781292626406653e+01 -1.3863772595938959e+01 -1.4086427550461240e+01 0 0 0
2160 1 1.0474733813934833e+01 -1.1749227160344404e+01 -1.4462719789920577e+01 0 0 0
5117 2 1.2839849585291178e+01 -1.1544717495010264e+01 -1.3478054445695550e+01 0 0 0
4711 2 -1.4251018512035404e+01 -1.0684283545342860e+01 -1.6386096251617541e+01 0 0 0
1286 1 -1.5809550248598690e+01 -9.0766897576565437e+00 -1.5175784993905427e+01 0 0 0
1385 1 -1.6782980789906016e+01 -1.0502383682875021e+01 -1.3577917594478299e+01 0 0 0
1484 1 -1.4033290125497498e+01 -1.0166253052950481e+01 -1.3808447453063513e+01 0 0 0
5421 2 -1.5643080488446381e+01 -8.3254327102096557e+00 -1.2901619933344037e+01 0 0 0
4801 2 -1.3233138705923395e+01 -8.4342009793489048e+00 -1.5500785086188781e+01 0 0 0
3612 2 -1.2996490867359798e+01 -7.9510241600327713e+00 -1.2809180955418892e+01 0 0 0
4569 2 -1.1654204780479645e+01 -1.0199539338423843e+01 -1.6586872569434131e+01 0 0 0
3235 2 -1.1396084650213126e+01 -9.8039391967291412e+00 -1.4014175729367864e+01 0 0 0
1706 1 -1.0734755568582623e+01 -8.0321946042489909e+00 -1.5608065976165143e+01 0 0 0
4069 2 -9.2486602377863072e+00 -1.0143958205806818e+01 -1.5382598709077488e+01 0 0 0
2588 1 -1.0569499631634919e+01 -7.4997995495084853e+00 -1.3169168073840824e+01 0 0 0
4620 2 -7.2454322443897237e+00 -1.0495059418840418e+01 -1.6731514878422502e+01 0 0 0
5146 2 -7.1216794602789308e+00 -1.0228576252649969e+01 -1.4144091227052890e+01 0 0 0
2211 1 -8.2974663116544285e+00 -7.8955451654111961e+00 -1.4433191376856209e+01 0 0 0
769 1 -6.2266671922179269e+00 -8.2707985277125218e+00 -1.5704799979067227e+01 0 0 0
4111 2 -6.1865840555419442e+00 -7.9318706738628100e+00 -1.3135649286857133e+01 0 0 0
1493 1 -5.1087031032529397e+00 -1.0602137351231541e+01 -1.5344940699925401e+01 0 0 0
4165 2 -3.9790961482494778e+00 -8.2866530521770994e+00 -1.4481336171494933e+01 0 0 0
1969 1 -2.7364353976954523e+00 -1.0518363452914993e+01 -1.4212953171461502e+01 0 0 0
4596 2 -1.9463012602511636e+00 -8.7823737130453807e+00 -1.5761940281324001e+01 0 0 0
962 1 -1.8018989166767911e+00 -8.1715777564120629e+00 -1.3304933049144642e+01 0 0 0
3203 2 -4.8814152963847004e+00 -1.0021478692605385e+01 -1.2903941684346988e+01 0 0 0
2017 1 1.4005217830065697e+00 -1.1363019085073841e+01 -1.6963115739495411e+01 0 0 0
625 1 -6.2266359890887879e-01 -1.0907776634222328e+01 -1.5368159040701643e+01 0 0 0
5377 2 4.1012776523598038e-01 -8.6332770917633912e+00 -1.4681286319936333e+01 0 0 0
309 1 1.6956674725077974e+00 -1.0757449091818518e+01 -1.4152571232996310e+01 0 0 0
318 1 -4.8710865213694404e-01 -1.0341389492479117e+01 -1.2894317551120855e+01 0 0 0
1778 1 3.7365912854759746e+00 -1.1259647306506293e+01 -1.5530059260407624e+01 0 0 0
2917 2 2.5147611005585184e+00 -9.1764079847707603e+00 -1.6046862669890398e+01 0 0 0
3849 2 2.6646234935322406e+00 -8.5800283012657168e+00 -1.3519755618926579e+01 0 0 0
5012 2 4.7906429870182974e+00 -9.1911904947299394e+00 -1.4799926079359652e+01 0 0 0
4262 2 3.9209576973886264e+00 -1.0784476156409418e+01 -1.2957864836046351e+01 0 0 0
3513 2 6.0727503981249695e+00 -1.1338414673521163e+01 -1.4408367045746193e+01 0 0 0
3512 2 5.4870635027347427e+00 -7.3786038142466523e+00 -1.6401119034015306e+01 0 0 0
4918 2 8.4317458859663628e+00 -1.1292176723738983e+01 -1.3231472821384044e+01 0 0 0
2198 1 7.0213985464373971e+00 -9.6102830556980425e+00 -1.6020500689090472e+01 0 0 0
2420 1 7.0086266076540795e+00 -9.1080508107341718e+00 -1.3472473393638879e+01 0 0 0
1903 1 9.1477894758162073e+00 -9.5973756422032999e+00 -1.4790326297768891e+01 0 0 0
899 1 9.8310461316993205e+00 -7.7890498207647605e+00 -1.6443591044341346e+01 0 0 0
5067 2 7.6194358647805291e+00 -7.3666660324796949e+00 -1.5202720209115334e+01 0 0 0
5229 2 1.1280143706604793e+01 -9.9491781107172557e+00 -1.6081512627274893e+01 0 0 0
5163 2 1.1439128440721008e+01 -9.4727632976678855e+00 -1.3692381679844356e+01 0 0 0
82 1 1.3810521107038220e+01 -9.8391537536003995e+00 -1.4953533002899423e+01 0 0 0
5108 2 1.2247110346491795e+01 -7.6019950893014494e+00 -1.5326236216438424e+01 0 0 0
1704 1 1.4263585192155135e+01 -7.9881430045721791e+00 -1.6540736423769758e+01 0 0 0
4630 2 1.6023250627631725e+01 -9.8364579851059393e+00 -1.3664598343365066e+01 0 0 0
3056 2 1.6598070314016756e+01 -8.0033025945724159e+00 -1.5337447010579757e+01 0 0 0
2163 1 1.4458261461095013e+01 -7.5236236492494450e+00 -1.4050208486333748e+01 0 0 0
4107 2 1.8766422318057312e+01 -8.2995169163898321e+00 -1.4154426173569721e+01 0 0 0
3872 2 -1.7252689113872062e+01 -6.9829388945890640e+00 -1.4324083091217407e+01 0 0 0
721 1 -1.8818821370729506e+01 -5.3698062795603949e+00 -1.3306652780269809e+01 0 0 0
4192 2 -1.7865235150931863e+01 -3.8309747672512442e+00 -1.4848065402315852e+01 0 0 0
2946 2 -1.4857700931582338e+01 -7.3473269023266443e+00 -1.7102720185795530e+01 0 0 0
4124 2 -1.6265151173086263e+01 -5.5794673624340447e+00 -1.6009522290246743e+01 0 0 0
2978 2 -1.4724396626323163e+01 -6.6848616827471332e+00 -1.4439174789726820e+01 0 0 0
1170 1 -1.6292397209682786e+01 -4.9168065246128210e+00 -1.3388502381562063e+01 0 0 0
1847 1 -1.3911232239295579e+01 -5.0932933857311369e+00 -1.6124193895984785e+01 0 0 0
3184 2 -1.3802508110271328e+01 -4.4021020883113104e+00 -1.3511442135606373e+01 0 0 0
1966 1 -1.2189242068147633e+01 -6.2198126935580333e+00 -1.4604008102076930e+01 0 0 0
3671 2 -1.1374532185425572e+01 -4.3364784994366099e+00 -1.6170667391268591e+01 0 0 0
424 1 -1.1386141713114396e+01 -3.9957719237655978e+00 -1.3621992664751183e+01 0 0 0
3544 2 -9.7914840689749010e+00 -5.8753443190942631e+00 -1.4938871580120214e+01 0 0 0
881 1 -8.9609414303829951e+00 -3.9647746084846567e+00 -1.6444306165841674e+01 0 0 0
3082 2 -7.6758245391722335e+00 -6.0213279298042162e+00 -1.6070490405296660e+01 0 0 0
989 1 -6.6138941180553177e+00 -3.9402881921483450e+00 -1.5281840743643665e+01 0 0 0
1597 1 -7.5395974125864411e+00 -5.7887948788552919e+00 -1.3625769073819265e+01 0 0 0
11 1 -8.8551339127319366e+00 -3.5802887916537496e+00 -1.3989388771375536e+01 0 0 0
1426 1 -5.3003261429908113e+00 -6.0960039666934804e+00 -1.4839316110807507e+01 0 0 0
4588 2 -4.4560297814142640e+00 -4.3308193990996404e+00 -1.6631545370622529e+01 0 0 0
8 1 -3.2538398232606034e+00 -6.6408226702295847e+00 -1.6172856205878787e+01 0 0 0
1335 1 -4.3018220903588347e+00 -3.8359243739554416e+00 -1.3966204552798036e+01 0 0 0
3630 2 -3.0915969393586447e+00 -6.0506569883251000e+00 -1.3664589359318997e+01 0 0 0
1779 1 -2.3065479554224702e+00 -4.3005799657122461e+00 -1.5339750109092346e+01 0 0 0
4035 2 -2.0488077534386320e+00 -3.8384018010608263e+00 -1.2775494812280357e+01 0 0 0
5110 2 -1.2801704159576793e-03 -4.8026830250145611e+00 -1.6580435871350694e+01 0 0 0
323 1 1.1977035800915179e+00 -7.0018417589238053e+00 -1.6325122027211485e+01 0 0 0
5351 2 -1.0752809368861620e+00 -6.5344364656463156e+00 -1.4924855076051157e+01 0 0 0
3276 2 2.7727184701467664e-02 -4.2016027744954343e+00 -1.4187920256484311e+01 0 0 0
3005 2 1.3815144076197066e+00 -6.2411641294017572e+00 -1.3809803957391752e+01 0 0 0
4948 2 2.2567270744131123e+00 -4.7052154963265673e+00 -1.5527668509545114e+01 0 0 0
384 1 4.2532685453681678e+00 -5.2139922923497517e+00 -1.6868709299695151e+01 0 0 0
62 1 3.3764227407755039e+00 -6.8841042793666212e+00 -1.5122910130522225e+01 0 0 0
2714 1 4.5044775837863780e+00 -4.6470991483860962e+00 -1.4128311283502212e+01 0 0 0
6 1 5.5208530219741263e+00 -6.8390555311928036e+00 -1.3895766525413482e+01 0 0 0
1657 1 2.4071075925269247e+00 -4.2208822339560497e+00 -1.2940854483118811e+01 0 0 0
3411 2 6.4908242156517719e+00 -5.0977786659368940e+00 -1.5482132498591358e+01 0 0 0
4421 2 8.7508987795998419e+00 -5.2033729439270875e+00 -1.4394621928449366e+01 0 0 0
2947 2 9.7526272936737008e+00 -3.1955884336723108e+00 -1.6156211483316859e+01 0 0 0
3142 2 6.6605206654449276e+00 -4.6520872024567677e+00 -1.3094609868178214e+01 0 0 0
902 1 1.0199429560746781e+01 -7.3386059999671787e+00 -1.3942157515720522e+01 0 0 0
141 1 1.0881787477015429e+01 -5.5967788417376161e+00 -1.5718018235840313e+01 0 0 0
4181 2 1.3278285915020481e+01 -5.3799443725191454e+00 -1.4598701205599202e+01 0 0 0
5330 2 1.0981860807716672e+01 -5.1131698109920256e+00 -1.3146698397825851e+01 0 0 0
2145 1 1.1832492700954210e+01 -3.3431006519547948e+00 -1.4907109463707526e+01 0 0 0
1987 1 1.4138950679823358e+01 -3.4632888428672541e+00 -1.6284149824145597e+01 0 0 0
4314 2 1.5274524325867137e+01 -5.7462329953221563e+00 -1.5787029033424192e+01 0 0 0
3455 2 1.5512304691601006e+01 -5.3567494904798370e+00 -1.3235608976411168e+01 0 0 0
2806 1 1.7707071480777692e+01 -5.8633995744289340e+00 -1.4534395880429225e+01 0 0 0
3176 2 1.6437251165326948e+01 -3.7017968297318320e+00 -1.4887449524530396e+01 0 0 0
210 1 1.9854583850208634e+01 -5.9101582013553218e+00 -1.3318619005936005e+01 0 0 0
2433 1 1.8666224154670036e+01 -3.6168062969687118e+00 -1.3862510845201458e+01 0 0 0
2080 1 -1.9394180676286464e+01 -2.1714612876085484e+00 -1.3820160976226450e+01 0 0 0
129 1 -1.8784024355705476e+01 -3.4999538811971559e-01 -1.5228874115007256e+01 0 0 0
4831 2 -1.8433071326124221e+01 4.0169323305051441e-01 -1.2891272883973491e+01 0 0 0
5270 2 -2.0867640354594403e+01 -3.0914138847785372e-01 -1.2899070513960844e+01 0 0 0
4977 2 -1.7125717487375692e+01 -1.9570381630748817e+00 -1.6483560387069435e+01 0 0 0
80 1 -1.5315951498678389e+01 -3.1700686163568097e+00 -1.5190897659756397e+01 0 0 0
4601 2 -1.6991931134618898e+01 -1.3885191783796393e+00 -1.4035183130725361e+01 0 0 0
2168 1 -1.4659377797110359e+01 -8.7369140599363138e-01 -1.4155066467716614e+01 0 0 0
1879 1 -1.6178990474202905e+01 3.2915533928928609e-01 -1.5710248177566037e+01 0 0 0
3088 2 -1.2938831777578875e+01 -2.7766961879705478e+00 -1.5088353798498524e+01 0 0 0