LAMMPS data file via write_data, version 12 Dec 2018, timestep = 2410000

5473 atoms
2 atom types

-2.4027376158654896e+01 2.3271744897849800e+01 xlo xhi
-2.5360395879075305e+01 2.6109956613963814e+01 ylo yhi
-2.6564657921838059e+01 2.5120380605626913e+01 zlo zhi

Masses

1 63.5
2 63.5

Atoms # atomic

521 1 1.9010085525128739e+00 -1.0037379407197060e+01 -2.3531556358095152e+01 0 0 0
4115 2 4.1220465306187934e+00 -1.1216929156239431e+01 -2.3761799293129098e+01 0 0 0
4215 2 -6.6696755902382732e-01 -7.7698383664728210e+00 -2.2943454841402051e+01 0 0 0
1690 1 1.5837851744437821e+00 -7.5397782876684296e+00 -2.4198075395563443e+01 0 0 0
507 1 3.5324017311902245e+00 -6.1361540028413470e+00 -2.4990086673073687e+01 0 0 0
3174 2 3.4696508988422434e+00 -6.8200580146515648e+00 -2.2480519297830817e+01 0 0 0
3061 2 3.8118823709708112e+00 -8.7330600297730623e+00 -2.4305469601238546e+01 0 0 0
1864 1 5.8797599483187160e+00 -8.0212937452693875e+00 -2.3070038401146789e+01 0 0 0
1814 1 -1.0762796132153949e+00 -5.3061271779238677e+00 -2.3609883209078273e+01 0 0 0
3182 2 -1.1022781517650844e+00 -2.6977422672172322e+00 -2.4084404613013803e+01 0 0 0
659 1 -3.3334473561350166e+00 -2.7036807433835266e+00 -2.2655242782575357e+01 0 0 0
1140 1 1.3195466093699542e+00 -5.1625493116367700e+00 -2.4686987848343353e+01 0 0 0
2273 1 1.1417995105612233e+00 -2.6888218557465615e+00 -2.5367170290059153e+01 0 0 0
1645 1 9.0384084643781104e-01 -3.3389176529438527e+00 -2.2961118378662100e+01 0 0 0
4330 2 3.2743713157180370e+00 -4.3647098674134099e+00 -2.3124625099636187e+01 0 0 0
3278 2 3.1845763171625894e+00 -3.7273973262560580e+00 -2.5518399684278421e+01 0 0 0
771 1 2.9395674436499126e+00 -1.9152274682298973e+00 -2.3786612314260928e+01 0 0 0
4212 2 5.4707990790772945e+00 -5.6937546896863225e+00 -2.3554319550070385e+01 0 0 0
2038 1 5.2071029833109153e+00 -3.0453073340103036e+00 -2.4125398596397826e+01 0 0 0
3843 2 5.4586756838143566e+00 -4.7286838228064552e+00 -2.5764616968530927e+01 0 0 0
1464 1 5.0141844779520808e+00 -2.3019887930956751e+00 -2.6554657921838057e+01 0 0 0
3103 2 7.2953495951558898e+00 -3.7198861779028860e+00 -2.3098794067942276e+01 0 0 0
4324 2 7.2408371503716378e+00 -2.7159872143342421e+00 -2.5632344369920581e+01 0 0 0
3976 2 2.7344883388341858e+00 -1.1751419718610332e+00 -2.6177778503370742e+01 0 0 0
1459 1 6.5097659787696682e-01 -8.3831149016858086e-01 -2.3618747321250936e+01 0 0 0
3910 2 4.8152003599300119e+00 -5.4135961827388601e-01 -2.4813970057833497e+01 0 0 0
5220 2 6.9056122625728635e+00 -1.2860592976982776e+00 -2.3571645306660166e+01 0 0 0
328 1 8.7773143275113874e+00 2.7462369340963200e-01 -2.3038126277198575e+01 0 0 0
1226 1 3.0899329480642423e+00 -1.8149052302517099e+01 -1.9459940407093224e+01 0 0 0
1 1 5.4034479080768500e+00 -1.9257739837969257e+01 -1.9797910171255317e+01 0 0 0
5229 2 7.4601536782543256e+00 -1.7983991127954983e+01 -2.0597742124918501e+01 0 0 0
1547 1 4.8419436296506896e-01 -1.5814205192769935e+01 -1.8944209536696924e+01 0 0 0
3682 2 2.6293089150847795e+00 -1.5779196007790452e+01 -2.0104972522777508e+01 0 0 0
3611 2 5.1270556244106693e+00 -1.6804957209836299e+01 -2.0301877620609169e+01 0 0 0
1411 1 4.5389760055271395e+00 -1.4469513295333146e+01 -2.1091700137261597e+01 0 0 0
2858 1 6.9603462006505561e+00 -1.5524311564353988e+01 -2.0990041041233990e+01 0 0 0
3630 2 7.1004624948434056e+00 -1.6311176366151692e+01 -1.8781033381400647e+01 0 0 0
3323 2 6.5921442131227099e+00 -1.3752767080972081e+01 -1.9444983515612094e+01 0 0 0
625 1 9.2258511729255712e+00 -1.6088462182267442e+01 -1.9934808477361354e+01 0 0 0
2402 1 1.0828468794960740e+01 -1.4438066865281185e+01 -1.9656918456331287e+01 0 0 0
5153 2 1.1549694307941321e+01 -1.6809187015740712e+01 -1.9080887088022475e+01 0 0 0
3446 2 8.7977524822134967e+00 -1.3768568181504715e+01 -2.0810884225132664e+01 0 0 0
3104 2 -6.8745943966200018e+00 -1.0350866004034588e+01 -1.8643910570944495e+01 0 0 0
4232 2 -4.5224038694425781e+00 -1.0075328655677666e+01 -2.0129183782425400e+01 0 0 0
3471 2 -4.3924636516308402e+00 -1.2445760663623597e+01 -1.9507088949377327e+01 0 0 0
5065 2 -2.1869116498343919e+00 -1.2502298362404348e+01 -2.0783002643460247e+01 0 0 0
2350 1 -2.3507885470173924e+00 -1.0133892932313868e+01 -2.1254372066118609e+01 0 0 0
1877 1 -2.4203950198560582e+00 -1.0908343595438849e+01 -1.8754712065921115e+01 0 0 0
91 1 -2.9379551332232046e-01 -1.0191813871509957e+01 -2.2542234500778413e+01 0 0 0
3605 2 -3.3436793431156681e-01 -1.0951591717468217e+01 -2.0023472994316030e+01 0 0 0
4320 2 1.3047278526797215e-01 -1.2661276893526473e+01 -2.1862406566006005e+01 0 0 0
4880 2 1.4971985488297621e-01 -1.3353832661845010e+01 -1.9487876973750843e+01 0 0 0
4482 2 2.3267461368359639e+00 -1.3568595805992464e+01 -2.0723209086141232e+01 0 0 0
1068 1 1.8169486382608340e+00 -1.0828301665685496e+01 -2.1292940542209184e+01 0 0 0
3898 2 1.8068101215411854e+00 -1.1548582182881256e+01 -1.8947287830569227e+01 0 0 0
3905 2 6.1009271006420684e+00 -1.0613558384363627e+01 -2.2296804823626758e+01 0 0 0
968 1 3.8242078687679859e+00 -1.0340362649248473e+01 -1.9630771978765150e+01 0 0 0
3060 2 6.5515312409466695e+00 -1.3084978519364538e+01 -2.1882866311654702e+01 0 0 0
2857 1 4.0423919994343533e+00 -1.1956410157670973e+01 -2.1428692071984507e+01 0 0 0
1663 1 4.0707496564353498e+00 -1.2757682275092268e+01 -1.9076818993399780e+01 0 0 0
4263 2 6.0961850259039938e+00 -1.1268220732739023e+01 -1.9992299719678670e+01 0 0 0
3968 2 8.3085660564384298e+00 -1.1342670045151854e+01 -2.1250833652095242e+01 0 0 0
140 1 1.0460473137300479e+01 -1.1897142127201368e+01 -2.0188683715398842e+01 0 0 0
2906 2 8.3172441461836470e+00 -1.1958807263888055e+01 -1.8866269126466435e+01 0 0 0
5070 2 7.9244519895231811e+00 -9.5807374972581858e+00 -1.9405913299869315e+01 0 0 0
529 1 1.2305102770969846e+01 -1.0120344369443835e+01 -1.9676322208069490e+01 0 0 0
2947 2 1.2612073967940617e+01 -1.2791706912577848e+01 -1.9213449817361088e+01 0 0 0
125 1 -7.2070511837183266e+00 -7.7198055717850691e+00 -1.9167762672059713e+01 0 0 0
4249 2 -4.9271262582555497e+00 -7.7059231466028280e+00 -2.0481625059066396e+01 0 0 0
2970 2 -5.3483647013605831e+00 -5.9996524865432219e+00 -1.8503371846513879e+01 0 0 0
2059 1 -2.7501196430413528e+00 -7.5880849817192813e+00 -2.1651354214446407e+01 0 0 0
662 1 -2.8410259767726860e+00 -8.3331002572261834e+00 -1.9352186827702067e+01 0 0 0
1816 1 -9.0443552567963059e-01 -6.6608446565727411e+00 -1.8670224747518841e+01 0 0 0
4550 2 -9.1012810876905637e-01 -6.0140318454008073e+00 -2.1153971667050502e+01 0 0 0
4595 2 -5.6156718411052964e-01 -8.3740756723753584e+00 -2.0511399732191737e+01 0 0 0
4349 2 -3.2108608668563887e+00 -6.0571960548552237e+00 -1.9851526997011806e+01 0 0 0
866 1 1.2614859907905756e+00 -5.8603664728203269e+00 -2.2402463826824270e+01 0 0 0
4597 2 1.5219717248784081e+00 -8.2911920670813597e+00 -2.1845886196820171e+01 0 0 0
1263 1 1.6094232030615894e+00 -9.1598154193343593e+00 -1.9585134841903862e+01 0 0 0
1985 1 1.3568467164397278e+00 -6.6546183371330017e+00 -1.9934981138325643e+01 0 0 0
4732 2 3.5875487937963890e+00 -7.7112507143710305e+00 -2.0243977890446981e+01 0 0 0
4405 2 3.6577971665789839e+00 -9.3806423845476683e+00 -2.1901576900912129e+01 0 0 0
2901 2 5.7869010323526888e+00 -8.8840495792545884e+00 -2.0619403951219077e+01 0 0 0
1629 1 5.6027847748606394e+00 -6.4430673388092465e+00 -2.1175552086387540e+01 0 0 0
3028 2 7.6169564631810678e+00 -6.4728093587387798e+00 -2.2474450044376646e+01 0 0 0
1557 1 7.5955046532257429e+00 -6.9108971316836030e+00 -1.9962425148267663e+01 0 0 0
241 1 1.0300750260150140e+01 -9.5623193770943686e+00 -2.0828324144303192e+01 0 0 0
3972 2 7.8903961404332748e+00 -8.8461875607937639e+00 -2.1714585113605569e+01 0 0 0
4749 2 9.7646576663866629e+00 -6.9516310146332758e+00 -2.1090743509544211e+01 0 0 0
1355 1 9.7683545056857763e+00 -7.7501546401139008e+00 -1.8711461189017129e+01 0 0 0
4384 2 1.1835085568842230e+01 -7.7646289388846732e+00 -2.0173629104607489e+01 0 0 0
489 1 1.3967772260330378e+01 -8.3822599779602704e+00 -1.9077097628292847e+01 0 0 0
4410 2 1.3982453084951258e+01 -7.3465909663632978e+00 -2.1377962095056184e+01 0 0 0
2495 1 1.3520877012982629e+01 -5.8341826859010100e+00 -1.9590957530063175e+01 0 0 0
5250 2 1.5721672520496281e+01 -5.9401336269890752e+00 -2.0759893256709599e+01 0 0 0
2966 2 1.6089077512687890e+01 -8.4157029262578327e+00 -2.0447165913697017e+01 0 0 0
4543 2 1.7804349738473825e+01 -6.6513111824821642e+00 -1.9757592915116135e+01 0 0 0
3560 2 -1.0038840949716707e+01 -2.7809197566696962e+00 -1.8898806697578301e+01 0 0 0
3085 2 -7.9050965967483124e+00 -2.5478426152102451e+00 -2.0374624510926100e+01 0 0 0
4206 2 -5.5884928391110300e+00 -2.6913444541971523e+00 -2.1542195291211591e+01 0 0 0
4511 2 -7.5064654906864883e+00 -5.1562920781974935e+00 -1.9863491471252338e+01 0 0 0
1764 1 -5.3145820556876275e+00 -5.1191002209686030e+00 -2.1157070299091405e+01 0 0 0
2979 2 -5.7302338480061739e+00 -3.5009189106311864e+00 -1.9181943427436703e+01 0 0 0
4544 2 -3.0545669864084708e+00 -5.0931884658108624e+00 -2.2278583329288438e+01 0 0 0
2377 1 -1.1925838055773239e+00 -3.5437508427309239e+00 -2.1692001222892952e+01 0 0 0
4231 2 -3.5233615019657134e+00 -3.5285289579824375e+00 -2.0354412291006454e+01 0 0 0
2951 2 -1.3562030656499695e+00 -4.2866821145688183e+00 -1.9254064674921736e+01 0 0 0
4163 2 -1.7488863517706537e+00 -1.8650182150974686e+00 -1.9852049465199990e+01 0 0 0
1256 1 -3.9580892467094730e+00 -1.8227659132339280e+00 -1.8643273114642078e+01 0 0 0
4848 2 8.4382521806839872e-01 -4.2033076216018230e+00 -2.0468199295132546e+01 0 0 0
1996 1 2.6975446119808821e+00 -3.5072418455001291e+00 -1.8860313411828489e+01 0 0 0
99 1 2.7605356174782747e+00 -2.7518579359587338e+00 -2.1279582240180652e+01 0 0 0
3453 2 3.1671864976519646e+00 -5.1541895008733682e+00 -2.0789055597758473e+01 0 0 0
1977 1 3.1831094894110978e-01 -2.4851347774696264e+00 -1.8734378883786452e+01 0 0 0
460 1 5.1750462683150209e+00 -3.7951616955552536e+00 -2.1698983042324421e+01 0 0 0
1029 1 5.0856596870554656e+00 -4.6574923115521765e+00 -1.9351632008834393e+01 0 0 0
930 1 4.7496004278620694e+00 -2.0594651946390745e+00 -1.9787238164321572e+01 0 0 0
441 1 6.8180441319091925e+00 -2.1178388212820844e+00 -2.1070049385067300e+01 0 0 0
1149 1 6.8145266972460057e+00 -3.0307857729392476e+00 -1.8748701745789699e+01 0 0 0
1402 1 7.3055049973880477e+00 -4.6126872750038475e+00 -2.0592911123036004e+01 0 0 0
2288 1 9.1462010676325463e+00 -1.9433585458865579e+00 -2.2437024077903722e+01 0 0 0
4469 2 9.4317557590088601e+00 -4.5943203572272084e+00 -2.1887550951628992e+01 0 0 0
605 1 9.3894469804967891e+00 -5.2224552044887771e+00 -1.9407291636190948e+01 0 0 0
926 1 9.0032918729477363e+00 -2.7769812739662161e+00 -2.0076275265058751e+01 0 0 0
4464 2 1.1370137656160002e+01 -2.8068439311317319e+00 -2.1304755449310942e+01 0 0 0
1632 1 1.1145393320882741e+01 -3.4699515294336463e+00 -1.8840847904754359e+01 0 0 0
5398 2 1.1612913418624712e+01 -5.1256089639176814e+00 -2.0690537382681978e+01 0 0 0
147 1 1.3513543006110611e+01 -3.3496994791913899e+00 -2.0371587861711870e+01 0 0 0
5052 2 1.5048775991522206e+01 -1.9205919960181259e+00 -1.9455937952663778e+01 0 0 0
1807 1 1.5441775935357514e+01 -4.2647489956381825e+00 -1.8803039763161173e+01 0 0 0
575 1 1.7336130480303012e+01 -4.1149508578822065e+00 -2.0321192335629917e+01 0 0 0
1003 1 -1.0278726390178997e+01 -4.8010957525621084e-01 -1.9683565680734478e+01 0 0 0
4169 2 -8.0039156083620213e+00 -2.0500599781489806e-01 -2.0937099869725909e+01 0 0 0
4214 2 -6.0709928824437593e+00 -1.1296492944769703e+00 -1.9786406950980432e+01 0 0 0
4849 2 -1.5893335605746046e+00 -1.0614090473434081e+00 -2.2266747052739078e+01 0 0 0
1602 1 -3.7956290071526428e+00 -1.0393556361194816e+00 -2.0976326972927456e+01 0 0 0
1527 1 4.8892014903390157e-01 -1.6364345096079946e+00 -2.1147739121102305e+01 0 0 0
5102 2 2.5112848106393661e+00 -2.3673258085236087e-01 -2.1955714755920589e+01 0 0 0
1191 1 2.4516292036884013e+00 -1.0734227016695927e+00 -1.9554190979150036e+01 0 0 0
2529 1 5.5432722134733346e-03 -5.2490087066082138e-02 -1.9220932434887317e+01 0 0 0
4703 2 4.7011060737716202e+00 -1.3321515972570332e+00 -2.2163385413944539e+01 0 0 0
2792 1 6.5351972149727207e+00 -4.5483979731858371e-01 -1.9311374709909227e+01 0 0 0
2415 1 1.0878149881537595e+01 -1.0562644182543119e+00 -1.9559066281856921e+01 0 0 0
3947 2 8.7121328287844531e+00 -3.4551569694170048e-01 -2.0494300006085648e+01 0 0 0
5075 2 1.0969106045785901e+01 -2.8524779845249804e-01 -2.1917662715758688e+01 0 0 0
4367 2 1.2982131083269749e+01 -9.2413590496409392e-01 -2.0674744102254969e+01 0 0 0
4168 2 7.2786232387911829e+00 -2.1055535284178088e+01 -1.7350475351413607e+01 0 0 0
3716 2 8.9157853599936061e+00 -2.1323103358128364e+01 -1.5160618737889680e+01 0 0 0
4609 2 7.6118420336897286e-01 -1.8217821378993918e+01 -1.8300846649567923e+01 0 0 0
365 1 8.3128556834257283e-01 -1.8927398338076745e+01 -1.6123845595266673e+01 0 0 0
3233 2 2.8626359469118814e+00 -1.9876303794432900e+01 -1.4795254686656179e+01 0 0 0
921 1 2.9888268497048132e+00 -1.8958481243336468e+01 -1.7116462928679141e+01 0 0 0
3974 2 5.1495507500454103e+00 -1.9977014183427052e+01 -1.7466550843008282e+01 0 0 0
1860 1 4.8638268753284519e+00 -1.8510598827520056e+01 -1.5582989372414751e+01 0 0 0
62 1 4.9827841123671002e+00 -2.0979544481703421e+01 -1.5438421458292767e+01 0 0 0
3025 2 7.2080951105563713e+00 -1.9442740663823333e+01 -1.5595337807153683e+01 0 0 0
2016 1 7.1870352631707783e+00 -1.8770642374910725e+01 -1.8090071205714860e+01 0 0 0
3569 2 5.0134759256692956e+00 -1.7483293162730106e+01 -1.8008554414971336e+01 0 0 0
2659 1 9.3234634172044526e+00 -1.9455264308689831e+01 -1.6973804647861940e+01 0 0 0
484 1 1.0824360915892623e+01 -1.9442795103206986e+01 -1.4989088476092709e+01 0 0 0
3520 2 9.0683161093676272e+00 -1.7647466983051672e+01 -1.5337516761578494e+01 0 0 0
1928 1 1.1348661145391558e+01 -1.7647916858180039e+01 -1.6533881099136092e+01 0 0 0
3101 2 -4.4105923719442641e+00 -1.4217352010827767e+01 -1.4673586566260582e+01 0 0 0
2008 1 -4.3775083963817281e+00 -1.3389518832584308e+01 -1.7054669983886331e+01 0 0 0
5044 2 -1.6448236453520415e+00 -1.5792042137384405e+01 -1.7849450379175639e+01 0 0 0
4092 2 -1.6989504301433718e+00 -1.6810566602077511e+01 -1.5493137136390679e+01 0 0 0
3301 2 -2.1818302446238302e+00 -1.4222342452834077e+01 -1.5815463226444450e+01 0 0 0
797 1 -2.1258024685961248e+00 -1.3361228341177664e+01 -1.8398541897580746e+01 0 0 0
993 1 2.6464479326304069e+00 -1.7350320209870343e+01 -1.5371836503368062e+01 0 0 0
85 1 2.1268315247947021e+00 -1.3989591998164691e+01 -1.8225465437485550e+01 0 0 0
2477 1 2.7994600747045541e-02 -1.4992890931956291e+01 -1.4738309877909822e+01 0 0 0
3321 2 -1.0090324889584606e-01 -1.4155991129958741e+01 -1.7089422477242323e+01 0 0 0
1044 1 2.6250832035680292e+00 -1.6481890541708449e+01 -1.7696064815587690e+01 0 0 0
3917 2 5.2640711835194176e-01 -1.6621395107936117e+01 -1.6521821078846568e+01 0 0 0
2968 2 2.2266427878200998e+00 -1.4836459099867843e+01 -1.5730940560566353e+01 0 0 0
1050 1 4.5647679195041153e+00 -1.5049868546188026e+01 -1.8502888167952509e+01 0 0 0
2323 1 6.8322564534232608e+00 -1.7100334340566878e+01 -1.6422611444180735e+01 0 0 0
3485 2 4.5394465786867313e+00 -1.5918294117852229e+01 -1.5976241801900494e+01 0 0 0
4305 2 6.4523051808743936e+00 -1.4598120723004973e+01 -1.6971521324453647e+01 0 0 0
4173 2 8.7759712763905018e+00 -1.4335576118686227e+01 -1.8351213292222180e+01 0 0 0
4120 2 9.2486875378966804e+00 -1.6891116398782167e+01 -1.7627476956720468e+01 0 0 0
3343 2 8.6947785467146605e+00 -1.5259656629355364e+01 -1.5882074100976016e+01 0 0 0
2023 1 1.0914537647605801e+01 -1.5079687703845261e+01 -1.7300492043880311e+01 0 0 0
4235 2 1.0939586295012647e+01 -1.5894417144104281e+01 -1.4797068397670316e+01 0 0 0
81 1 1.0445151637542736e+01 -1.3462596520856119e+01 -1.5186307241156033e+01 0 0 0
1949 1 1.3110576415504919e+01 -1.5016766260709067e+01 -1.8481070372532450e+01 0 0 0
4012 2 1.3021331349079691e+01 -1.5861897686771009e+01 -1.6086667263310765e+01 0 0 0
1575 1 1.4903479976515248e+01 -1.4097881656767292e+01 -1.5574119618736821e+01 0 0 0
3476 2 -1.3528296797808261e+01 -9.1811618057450985e+00 -1.5739155261588593e+01 0 0 0
4040 2 -1.0791715573241872e+01 -1.2714614980556329e+01 -1.5749415591272083e+01 0 0 0
737 1 -9.2008774865554823e+00 -1.0879185793383792e+01 -1.4961958894790259e+01 0 0 0
2962 2 -1.1257513694239753e+01 -1.0311191713221058e+01 -1.6081246945509459e+01 0 0 0
2964 2 -8.6802162909825000e+00 -1.2353285386548880e+01 -1.6874612623540742e+01 0 0 0
2651 1 -9.1033066061573233e+00 -1.0013639483200405e+01 -1.7549442789905701e+01 0 0 0
2610 1 -6.5779621617922368e+00 -1.2655937693452945e+01 -1.8138305562187437e+01 0 0 0
215 1 -6.4636149184193199e+00 -1.3451830185118054e+01 -1.5784658055310496e+01 0 0 0
2053 1 -4.7526403807968993e+00 -1.1804020444223848e+01 -1.5112254874950731e+01 0 0 0
3816 2 -6.8420476868973337e+00 -1.0770812112118106e+01 -1.6358165735616431e+01 0 0 0
2136 1 -4.6522479071639422e+00 -1.0987205465284450e+01 -1.7519215535988025e+01 0 0 0
1093 1 -2.6010350016521899e+00 -1.1678483499020262e+01 -1.6346168618766367e+01 0 0 0
4910 2 -8.1052083231805760e-01 -1.0061733155787561e+01 -1.5678260288142228e+01 0 0 0
2293 1 -3.2609026885346271e-01 -1.2613598657379480e+01 -1.5223097126622411e+01 0 0 0
3100 2 -2.0725959923060347e-01 -1.1745909545136668e+01 -1.7636683466642967e+01 0 0 0
1753 1 1.7463453233581065e+00 -1.2370626595445087e+01 -1.6390745517349455e+01 0 0 0
3407 2 1.4992173861339850e+00 -9.9750297963454067e+00 -1.6919680799089544e+01 0 0 0
1471 1 1.4720214713535871e+00 -1.0695473646123812e+01 -1.4569497242689762e+01 0 0 0
4117 2 3.7537668377252911e+00 -1.1777210768223334e+01 -1.4704761620480161e+01 0 0 0
885 1 3.7427373974918892e+00 -1.0917078312618028e+01 -1.7185699827755926e+01 0 0 0
5154 2 4.1538840134589039e+00 -1.3378244807585299e+01 -1.6681393596496889e+01 0 0 0
1710 1 6.0510501313331231e+00 -1.2018435301649344e+01 -1.7615087302039669e+01 0 0 0
3786 2 5.7133321841812892e+00 -1.0454597953620409e+01 -1.5833403022257666e+01 0 0 0
3850 2 6.0652563604219649e+00 -1.2921740189669480e+01 -1.5237066222807071e+01 0 0 0
372 1 1.0155612555040236e+01 -1.0196741856716745e+01 -1.8296570438350539e+01 0 0 0
1551 1 7.8479651643191977e+00 -1.0375742575640230e+01 -1.6978386596866798e+01 0 0 0
2071 1 8.3424769905387581e+00 -1.2748174232150909e+01 -1.6380798514116709e+01 0 0 0
4526 2 1.0580403934592709e+01 -1.2577313891048531e+01 -1.7757354219157612e+01 0 0 0
4995 2 1.0015371194795616e+01 -1.0981622871306518e+01 -1.5876531756741198e+01 0 0 0
3525 2 1.4428046561676950e+01 -1.0928614687415344e+01 -1.8668806014224053e+01 0 0 0
230 1 1.2743487631098491e+01 -1.3389907463027992e+01 -1.6620531802264118e+01 0 0 0
4657 2 1.4917304410330278e+01 -1.3133292475695438e+01 -1.7854618917361847e+01 0 0 0
3080 2 1.2255915141443600e+01 -1.0805391874912896e+01 -1.7225576788077305e+01 0 0 0
2124 1 1.4499007939662336e+01 -1.1602420994349925e+01 -1.6066682889696168e+01 0 0 0
4444 2 1.2196574742565643e+01 -1.1655764867790785e+01 -1.4755388126858167e+01 0 0 0
3135 2 1.6796864681540455e+01 -1.2331276935827677e+01 -1.4979403479974300e+01 0 0 0
334 1 1.6708470110764782e+01 -1.1411542686261415e+01 -1.7250535794420724e+01 0 0 0
3665 2 1.6194768504168223e+01 -9.8451118398019428e+00 -1.5492790944362575e+01 0 0 0
4394 2 1.8275103033172247e+01 -9.6252776109673395e+00 -1.6982496963085890e+01 0 0 0
1863 1 -1.3678615900294076e+01 -6.8273172458507840e+00 -1.6374204411120740e+01 0 0 0
4197 2 -1.1975288726895815e+01 -6.0937286623340929e+00 -1.4842688602243030e+01 0 0 0
97 1 -9.4549752964789846e+00 -7.6304254097262314e+00 -1.8130485517550433e+01 0 0 0
1754 1 -9.4116512213540844e+00 -8.4255208550087932e+00 -1.5616670566883423e+01 0 0 0
289 1 -1.1542079935516538e+01 -7.8616809331608675e+00 -1.6664802864329683e+01 0 0 0
3219 2 -9.7976981858183425e+00 -5.9889559070723877e+00 -1.6034854886144164e+01 0 0 0
4791 2 -5.0852285908094332e+00 -8.6217175834834325e+00 -1.8066839498475272e+01 0 0 0
1200 1 -5.1066076269641538e+00 -9.3291289857980928e+00 -1.5553350991239098e+01 0 0 0
4332 2 -7.2426861636461206e+00 -8.5600662039644213e+00 -1.6801388171015823e+01 0 0 0
5337 2 -5.5687804093111168e+00 -6.9262513345309928e+00 -1.6289250055785679e+01 0 0 0
2950 2 -7.6017307353103574e+00 -6.0549865085184971e+00 -1.7429056668506977e+01 0 0 0
4147 2 -7.7095673679380718e+00 -6.8231569806939767e+00 -1.4963600190972047e+01 0 0 0
4251 2 -5.6034741468379634e-01 -9.2026851906084204e+00 -1.8298991142453890e+01 0 0 0
4374 2 -2.7128352421121287e+00 -9.2603456902963579e+00 -1.6993664676659062e+01 0 0 0
3597 2 -3.1356397093097774e+00 -6.7104551169365463e+00 -1.7431300081417334e+01 0 0 0
4547 2 -3.4646397198079053e+00 -7.5499859895635861e+00 -1.5184125327746536e+01 0 0 0
2454 1 -1.0476173182832997e+00 -7.6106446451353094e+00 -1.6266534481199393e+01 0 0 0
4391 2 3.1406125073452378e+00 -6.1457467283249887e+00 -1.8358001447567066e+01 0 0 0
4399 2 1.1843455557744762e+00 -7.4629134124415906e+00 -1.7555106395404117e+01 0 0 0
1790 1 3.0285348895185171e+00 -6.6972704349691128e+00 -1.5891288400698464e+01 0 0 0
3084 2 9.3754367446801801e-01 -8.3275949594194891e+00 -1.5161016661493433e+01 0 0 0
3801 2 3.3676743642525677e+00 -9.3531283902180178e+00 -1.5526828187429867e+01 0 0 0
2971 2 7.1878261881680305e-01 -5.8564517413731849e+00 -1.5681000973546311e+01 0 0 0
309 1 3.3727276408121161e+00 -8.5081847611765511e+00 -1.7800844263898799e+01 0 0 0
4973 2 5.3526020914903958e+00 -7.2284040800233145e+00 -1.8714062432026740e+01 0 0 0
2929 2 5.7486124237198366e+00 -9.5807424357424313e+00 -1.8097427438544951e+01 0 0 0
3602 2 5.1953788281320010e+00 -7.8737206282626522e+00 -1.6250248208428065e+01 0 0 0
4325 2 7.1521583575834358e+00 -6.2804453341526463e+00 -1.5609022928890607e+01 0 0 0
1104 1 7.5659435318138542e+00 -7.8929227357529914e+00 -1.7439230003894391e+01 0 0 0
4632 2 7.4088869007806455e+00 -8.7567315964070573e+00 -1.5109079093492962e+01 0 0 0
4784 2 9.6290555483928753e+00 -8.6244797822222647e+00 -1.6361585954493371e+01 0 0 0
1566 1 9.2928913868910819e+00 -6.0547349063287195e+00 -1.6983141068296554e+01 0 0 0
4641 2 9.3234876291307334e+00 -7.0767228854369533e+00 -1.4535424215253384e+01 0 0 0
4331 2 1.1440661232133547e+01 -6.7730994055148823e+00 -1.5831511006983089e+01 0 0 0
2048 1 1.1500576655052376e+01 -6.0238256140753075e+00 -1.8306992586672568e+01 0 0 0
700 1 1.1777546999131438e+01 -9.3219352697611768e+00 -1.5221064729897028e+01 0 0 0
976 1 1.1843809055678767e+01 -8.4342992870686970e+00 -1.7666422692844790e+01 0 0 0
4689 2 1.3969712598297672e+01 -9.2039115086343006e+00 -1.6719101670060081e+01 0 0 0
2277 1 1.3591411580593292e+01 -6.6200948612741746e+00 -1.7076243262243988e+01 0 0 0
378 1 1.5801854149635860e+01 -6.7152721748037862e+00 -1.8367347579203120e+01 0 0 0
4141 2 1.5818598521048177e+01 -7.4055430377818450e+00 -1.6085270769620273e+01 0 0 0
3176 2 1.6136366036227731e+01 -9.0713454244624110e+00 -1.7935698670668867e+01 0 0 0
4125 2 1.8109984866567185e+01 -7.1424020639246839e+00 -1.7335000973651987e+01 0 0 0
2944 2 1.8014682030392528e+01 -8.0160457146984658e+00 -1.5004437013412719e+01 0 0 0
2531 1 1.7709576228929539e+01 -5.5815159033784267e+00 -1.5494401848303252e+01 0 0 0
2280 1 2.0143294879605378e+01 -8.0247233468975079e+00 -1.6421785951025623e+01 0 0 0
2015 1 2.1792768316989218e+01 -6.2723098235232557e+00 -1.5657529239200668e+01 0 0 0
4246 2 1.9823068004024741e+01 -5.3501147245558620e+00 -1.6828665980104503e+01 0 0 0
579 1 -1.6960223212976000e+01 -1.8189205715154346e+00 -1.6204359952736521e+01 0 0 0
2708 1 -1.4255644369404466e+01 -4.4166047609283163e+00 -1.6933150169460607e+01 0 0 0
2158 1 -1.4565618471860352e+01 -2.6398440239092729e+00 -1.5115323462917722e+01 0 0 0
5112 2 -1.2352381975301997e+01 -3.5673131920749039e+00 -1.5387253767331122e+01 0 0 0
3034 2 -1.2308162966950274e+01 -2.9945286925647960e+00 -1.7742596298225362e+01 0 0 0
4887 2 -1.1763861259060862e+01 -5.4644611314467619e+00 -1.7239029487332012e+01 0 0 0
3081 2 -1.4672509035975697e+01 -1.8395538011438799e+00 -1.7489105960836557e+01 0 0 0
192 1 -9.6369842144988347e+00 -5.1091307451389163e+00 -1.8412632377301765e+01 0 0 0
4559 2 -1.0204828869938574e+01 -3.4949097173213355e+00 -1.6631652170022218e+01 0 0 0
1196 1 -8.4412436561011130e+00 -1.9770113575462247e+00 -1.6072982029258270e+01 0 0 0
2279 1 -1.0548810754019843e+01 -1.9476393595769774e+00 -1.4710134728610063e+01 0 0 0
2037 1 -8.1160320851009384e+00 -4.4847122132936965e+00 -1.5411728144078758e+01 0 0 0
3979 2 -7.7883269639780464e+00 -3.4657663278021111e+00 -1.7943237110439341e+01 0 0 0
676 1 -5.8614350009560869e+00 -4.3057651302848354e+00 -1.6634227010088416e+01 0 0 0
1466 1 -6.2161996345402528e+00 -2.5304718854181387e+00 -1.4866795234180483e+01 0 0 0
5279 2 -6.1732560599151327e+00 -1.7121740511241581e+00 -1.7276960872056211e+01 0 0 0
2557 1 -4.1168086167391529e+00 -2.6392959826518294e+00 -1.6283782949214796e+01 0 0 0
2519 1 -3.6399186691750418e+00 -4.2886358280001602e+00 -1.8045474064006619e+01 0 0 0
4477 2 -1.3658679356240935e+00 -5.0010435450994049e+00 -1.6875708063914743e+01 0 0 0
283 1 -3.6537378678069810e+00 -5.0891940493634609e+00 -1.5627269103443808e+01 0 0 0
4962 2 -1.9076407841526160e+00 -2.6275307836304171e+00 -1.7405908300897867e+01 0 0 0
1440 1 -1.9582586451833870e+00 -3.3687777302461090e+00 -1.5021575227246821e+01 0 0 0
4687 2 8.9415747739156104e-01 -5.0029729026072260e+00 -1.8075548033561422e+01 0 0 0
3035 2 2.7362174182648080e+00 -4.2865941322024366e+00 -1.6422624126171272e+01 0 0 0
1097 1 2.4637421986357758e-01 -3.3644267784577626e+00 -1.6387871116481371e+01 0 0 0
4354 2 2.1186534296770554e+00 -1.7952153798357242e+00 -1.7004118305356439e+01 0 0 0
4872 2 2.1623383559664577e+00 -2.7295277337798494e+00 -1.4726765187833651e+01 0 0 0
213 1 7.0559815221127238e+00 -5.5308277178856704e+00 -1.8104999997107530e+01 0 0 0
1665 1 4.9566850659036064e+00 -5.4555460581317758e+00 -1.6802084343923692e+01 0 0 0
1636 1 4.6406133234070763e+00 -2.9748526653948373e+00 -1.7407239879983116e+01 0 0 0
1475 1 4.5724829465566241e+00 -3.7715874701238499e+00 -1.4880145631489043e+01 0 0 0
3247 2 6.7340258929004966e+00 -3.8268658156220878e+00 -1.6173368492930560e+01 0 0 0
4266 2 8.9273304677748744e+00 -3.6690331688073172e+00 -1.7584347957157899e+01 0 0 0
2156 1 8.9067186536639955e+00 -4.5040178657643297e+00 -1.5046753065128021e+01 0 0 0
2176 1 1.1043975044922979e+01 -4.3283739177509197e+00 -1.6282324072325295e+01 0 0 0
454 1 8.4554771173276908e+00 -2.0100374976565218e+00 -1.5832875731818289e+01 0 0 0
5254 2 1.0834231416146636e+01 -1.8315219379153251e+00 -1.7024913264942725e+01 0 0 0
2146 1 1.2915816255622223e+01 -1.5462418246206551e+00 -1.8261629167815109e+01 0 0 0
264 1 1.3335320386512233e+01 -4.9224454447024160e+00 -1.5268960614324087e+01 0 0 0
799 1 1.3246031397044828e+01 -4.0680184119633163e+00 -1.7676638618594417e+01 0 0 0
680 1 1.2827970718984654e+01 -2.5266806486182802e+00 -1.5774331580551852e+01 0 0 0
569 1 1.5211834822474154e+01 -2.5078062496689673e+00 -1.7061081505602161e+01 0 0 0
2920 2 1.7269345888775231e+01 -2.4246608759836583e+00 -1.8310350089253582e+01 0 0 0
3778 2 1.5435060608455911e+01 -4.9386613937027803e+00 -1.6528831858814428e+01 0 0 0
4128 2 1.7672577408147728e+01 -4.8813574538461486e+00 -1.7965291739551965e+01 0 0 0
247 1 1.7309143469792598e+01 -3.1532421631771479e+00 -1.5904229564484639e+01 0 0 0
2383 1 1.9580003607987969e+01 -3.7927312431993618e+00 -1.4846607064811991e+01 0 0 0
4311 2 -1.2671973054918977e+01 -5.7615497237936786e-01 -1.8322348513289889e+01 0 0 0
1482 1 -1.2795760046357476e+01 -1.1834114183977524e+00 -1.6024764290817927e+01 0 0 0
713 1 -1.5054656438844793e+01 -1.5206734992163828e-01 -1.5798096707026309e+01 0 0 0
3752 2 -8.3160383275724712e+00 -1.0756850570768968e+00 -1.8439768695919664e+01 0 0 0
3847 2 -1.0653276965153038e+01 -1.0462931202012737e+00 -1.7191139643398309e+01 0 0 0
2922 2 -6.5826291148833525e+00 -7.5753269941170071e-02 -1.5459389726560056e+01 0 0 0
1797 1 -4.2461301363621873e+00 -2.0231022373654409e-01 -1.6618380053856981e+01 0 0 0
2319 1 -2.2216663226922093e+00 -8.6891841306384998e-01 -1.5589634508606931e+01 0 0 0
3577 2 -2.1854120819080718e+00 1.2821090594504717e-01 -1.7966049724711258e+01 0 0 0
767 1 -1.1094614579059497e-01 -8.0412057591435004e-01 -1.6811796693321959e+01 0 0 0
4558 2 1.9280395788353857e+00 -2.0870757497917211e-01 -1.5190003191033808e+01 0 0 0
4804 2 6.3251624048695509e+00 -1.3267360110446256e+00 -1.6795511191728231e+01 0 0 0
692 1 4.2158782088983449e+00 -1.2989064362782359e+00 -1.5509300288876648e+01 0 0 0
2068 1 4.1964583361856551e+00 -4.6899719465535433e-01 -1.7990369056065045e+01 0 0 0
1156 1 8.6687114372592919e+00 -1.2182132281271565e+00 -1.8289046004743106e+01 0 0 0
4161 2 1.0250032476205694e+01 -3.4483664970606120e-01 -1.5103245294606971e+01 0 0 0
1496 1 1.4626583991477339e+01 -7.5404239831060793e-01 -1.5273401651168511e+01 0 0 0
2854 1 1.2542948555255064e+01 -4.7747257670558436e-02 -1.6289116333047133e+01 0 0 0
1888 1 1.4603524771070242e+01 1.6461676775814085e-02 -1.7654024605981729e+01 0 0 0
251 1 1.9092414298510246e+01 -1.4264800434402845e+00 -1.5478415347639851e+01 0 0 0
2042 1 1.6715735855925228e+01 -6.3536204554570130e-01 -1.6524536700541244e+01 0 0 0
3045 2 6.5919363248374427e+00 -2.3491437294769366e+01 -1.2186059928379327e+01 0 0 0
1270 1 4.2201413616781078e+00 -2.3066424994606933e+01 -1.1018923318109666e+01 0 0 0
1164 1 4.9349469361110074e+00 -2.1653710766168839e+01 -1.2794883368174286e+01 0 0 0
1548 1 6.8525227177229828e+00 -2.1297739800879278e+01 -1.4064815071688251e+01 0 0 0
389 1 1.0502481265457154e+01 -2.1321616571291756e+01 -1.3248402912804911e+01 0 0 0
1222 1 8.3019061099799796e+00 -2.1544129142204312e+01 -1.2089843604137108e+01 0 0 0
3345 2 -4.1359967211893816e+00 -1.7430386631611931e+01 -1.1830167289274632e+01 0 0 0
5350 2 -4.2663799563654718e+00 -1.9720929431861002e+01 -1.1076012019276680e+01 0 0 0
3402 2 -1.8803278625046611e+00 -1.9794604348246263e+01 -1.2359001416420330e+01 0 0 0
411 1 -1.9960877085024469e+00 -1.7305046489966536e+01 -1.3065440807384748e+01 0 0 0