LAMMPS data file via write_data, version 12 Dec 2018, timestep = 2410000

5473 atoms
2 atom types

-2.5356202744323994e+01 2.5056194359591302e+01 xlo xhi
-2.4611920560894152e+01 2.4313908863316573e+01 ylo yhi
-2.4541450870494803e+01 2.4843663282877426e+01 zlo zhi

Masses

1 63.5
2 63.5

Atoms # atomic

1778 1 -1.0057341196418914e+00 -1.1545919525405255e+01 -2.1427701679366489e+01 0 0 0
3753 2 9.1552477063835125e-01 -9.8570607075600627e+00 -2.2528289833856043e+01 0 0 0
3419 2 2.8091572380365761e+00 -1.2649443488797965e+01 -2.1400442237571774e+01 0 0 0
4275 2 3.0022574974567453e+00 -1.0080099585091098e+01 -2.1063933196725376e+01 0 0 0
5085 2 7.0891868839194032e+00 -1.1313759814931320e+01 -2.0801639854488073e+01 0 0 0
4830 2 -3.3243410640506545e+00 -8.7418483537213252e+00 -2.2550102602876500e+01 0 0 0
3964 2 -5.3802719763990199e+00 -5.9681577102239478e+00 -2.3573951854489092e+01 0 0 0
4073 2 -5.3371188133023200e+00 -7.4571560726310171e+00 -2.1581564269113088e+01 0 0 0
4712 2 -3.2030788998393711e+00 -6.1411645773196506e+00 -2.2227139676417579e+01 0 0 0
1961 1 -1.1691333778433091e+00 -8.9008626322093320e+00 -2.1388318380655839e+01 0 0 0
5132 2 -1.4123423995425481e+00 -7.2133258671393534e+00 -2.3492377496392198e+01 0 0 0
1124 1 8.5599827967771358e-01 -7.4396506976609382e+00 -2.2214070176651564e+01 0 0 0
5430 2 -1.1293963854307059e+00 -6.2260488897881725e+00 -2.0964870889706891e+01 0 0 0
4325 2 2.8807533215997196e+00 -8.5050320395381931e+00 -2.2992012102726498e+01 0 0 0
2900 2 5.0095748108303608e+00 -8.7415181556059736e+00 -2.1853880970159594e+01 0 0 0
5142 2 3.0250658801304882e+00 -6.0511101005156105e+00 -2.2792551307434774e+01 0 0 0
2751 1 5.1049300602862298e+00 -6.3270627957715959e+00 -2.1570793563085775e+01 0 0 0
1 1 3.0828800242240901e+00 -7.4654588301321629e+00 -2.0743250717299393e+01 0 0 0
4207 2 -1.1372171005738059e+01 -2.4604841287631700e+00 -2.0634490187707044e+01 0 0 0
1881 1 -7.3512687710435687e+00 -4.7727614523778472e+00 -2.2813224993217734e+01 0 0 0
4592 2 -9.4329107764701057e+00 -3.9655453137395509e+00 -2.2077727632844468e+01 0 0 0
3083 2 -7.3838681592768989e+00 -2.4249847511991351e+00 -2.2778909215052511e+01 0 0 0
861 1 -3.2067281988194241e+00 -5.2087884042921520e+00 -2.4439721705108884e+01 0 0 0
3037 2 -5.2382484676376384e+00 -4.8748273589119275e+00 -2.1357891897584484e+01 0 0 0
1152 1 -5.1343834133150237e+00 -3.5995799230014818e+00 -2.3502933785123950e+01 0 0 0
4208 2 -3.2146814549965819e+00 -3.7401197377161566e+00 -2.2339812982989763e+01 0 0 0
4316 2 -5.2050884905154611e+00 -2.5020887458024110e+00 -2.1379959216768622e+01 0 0 0
1466 1 -3.1126434100386136e+00 -2.2489280888117000e+00 -2.4454190155422740e+01 0 0 0
91 1 -1.1742342484736705e+00 -4.8350247455687905e+00 -2.3154185449798675e+01 0 0 0
4417 2 1.1619000668583876e+00 -4.9436649416068086e+00 -2.1918531471649985e+01 0 0 0
1133 1 9.5133502862443242e-01 -3.4947274589833941e+00 -2.3989776170743344e+01 0 0 0
812 1 -1.1143942947277699e+00 -2.3857819696071485e+00 -2.3113152054543136e+01 0 0 0
3761 2 -9.5641246868905283e-01 -3.7757320245162753e+00 -2.1058361765745460e+01 0 0 0
1524 1 1.1182659283810790e+00 -2.1000829456117684e+00 -2.1887745541956544e+01 0 0 0
1547 1 2.9738991100372210e+00 -3.4691120751527991e+00 -2.2805669834712145e+01 0 0 0
535 1 5.2714865907105688e+00 -3.6776924514949139e+00 -2.1565391005206870e+01 0 0 0
2954 2 3.3424375855493227e+00 -2.3900791109595829e+00 -2.0583344366933616e+01 0 0 0
3186 2 -9.3573705614187208e+00 -1.2817273727118694e+00 -2.1825490699262154e+01 0 0 0
3292 2 2.4854700888434778e+01 -1.1514564504258229e+00 -2.9662564130464192e-01 0 0 0
4771 2 -5.4203805904181701e+00 -9.8518759527560451e-01 -2.3427978706356303e+01 0 0 0
3471 2 -3.2040878021325785e+00 -1.1504700556609151e+00 -2.2115958174731823e+01 0 0 0
3987 2 1.8425445000228809e+01 -1.5979114755770030e+00 -5.9801688106326878e-01 0 0 0
3004 2 6.2893571397865677e-01 -8.0252598347836457e-01 -2.4090135684368018e+01 0 0 0
1988 1 -9.8567112962487669e-01 -9.6151808365704983e-01 -2.0949570704573684e+01 0 0 0
4858 2 1.0226497374302646e+01 -4.7191632473244410e-01 -1.1969216067690713e+00 0 0 0
1384 1 2.8838749520947684e+00 -1.0601684028891769e+00 -2.3177185550787108e+01 0 0 0
3482 2 5.0533241130212501e+00 -1.3191167688637180e+00 -2.2028016244197897e+01 0 0 0
3018 2 2.1669844073352347e+00 -1.7894185554943309e+01 -1.7741717862247214e+01 0 0 0
1086 1 -5.2811911472672284e+00 -1.3973094593647399e+01 -1.9092051666386851e+01 0 0 0
954 1 -2.8808224024322864e+00 -1.4188878211549049e+01 -1.8137976764824376e+01 0 0 0
1182 1 -2.4320188759793351e+00 -1.6677430222434843e+01 -1.8020259067862433e+01 0 0 0
1793 1 8.3351109384891364e-01 -1.3776136959335672e+01 -2.0435056240602243e+01 0 0 0
3525 2 -7.7017312596189103e-01 -1.5269433080699267e+01 -1.9315550557667390e+01 0 0 0
9 1 1.3625424825924666e+00 -1.5541175655483132e+01 -1.8073328837443700e+01 0 0 0
2197 1 3.8215173723047542e+00 -1.6408243037758361e+01 -1.8673075988173153e+01 0 0 0
3294 2 3.0600563157496086e+00 -1.4201343709296136e+01 -1.9370548026265187e+01 0 0 0
3635 2 5.2747241693758360e+00 -1.4080936688795807e+01 -1.8046531960685886e+01 0 0 0
1281 1 5.7860427430592161e+00 -1.6678402542601049e+01 -1.7501702560182682e+01 0 0 0
4564 2 -7.2292420263291977e+00 -1.2667454882864808e+01 -1.8335024314312541e+01 0 0 0
1009 1 -9.3693545745515738e+00 -1.0006453920301354e+01 -1.9650610841265546e+01 0 0 0
2246 1 -7.2528566598369340e+00 -1.0000187333494022e+01 -1.8552230106985736e+01 0 0 0
2941 2 -9.3128488485352605e+00 -1.1324411378493542e+01 -1.7477929865298481e+01 0 0 0
1189 1 -3.1294088968822522e+00 -1.2891261156230076e+01 -2.0357882418406152e+01 0 0 0
5323 2 -3.2258862253407843e+00 -1.0249417212689830e+01 -2.0578043789588239e+01 0 0 0
950 1 -5.2905488070234101e+00 -1.1551142890518179e+01 -1.9541213308530711e+01 0 0 0
2480 1 -3.0935069670969932e+00 -1.1564181302556433e+01 -1.8342155122465932e+01 0 0 0
4642 2 -5.1630849702195496e+00 -1.0273229933587595e+01 -1.7338485662026887e+01 0 0 0
3613 2 -1.0512757210861783e+00 -1.2760168312417923e+01 -1.9200509350661829e+01 0 0 0
232 1 1.2394588657239445e+00 -1.2860911021874205e+01 -1.8182583804759041e+01 0 0 0
4926 2 1.0480360054339217e+00 -1.1428059619793338e+01 -2.0226160842052220e+01 0 0 0
2092 1 -1.1386271163660771e+00 -1.0251241519176295e+01 -1.9161459620682731e+01 0 0 0
4433 2 1.0984485831829114e+00 -1.0229894645366855e+01 -1.8023354506302621e+01 0 0 0
1622 1 5.0379609963750998e+00 -1.2599759254619343e+01 -2.0213285698702357e+01 0 0 0
2596 1 3.1170494433942753e+00 -1.1451177774715397e+01 -1.9097422981615729e+01 0 0 0
279 1 5.1885130477005621e+00 -1.0154928412263091e+01 -1.9832056468575523e+01 0 0 0
3322 2 5.2167049732627850e+00 -1.1644488760197554e+01 -1.7739987330909067e+01 0 0 0
4277 2 7.1720519785534611e+00 -1.2850721078045350e+01 -1.8913870476594283e+01 0 0 0
1541 1 7.4336432329819342e+00 -1.0253488579292206e+01 -1.8517681099285124e+01 0 0 0
3414 2 9.5430786508356906e+00 -1.1137336464397116e+01 -1.9574865971047004e+01 0 0 0
4586 2 9.5857833804787802e+00 -1.2921594186701563e+01 -1.7670846642064010e+01 0 0 0
3703 2 1.1599087592456371e+01 -1.1706041594840023e+01 -1.8256062099514200e+01 0 0 0
387 1 9.6581131338909874e+00 -1.0585904416766846e+01 -1.7058257124039660e+01 0 0 0
3908 2 -1.1524396477505084e+01 -8.8085252905441678e+00 -1.8658562776598991e+01 0 0 0
71 1 -1.3581489657513481e+01 -7.6280651030287512e+00 -1.7651064205179566e+01 0 0 0
846 1 -1.1451420877757570e+01 -6.2586296484788440e+00 -1.8657861240484792e+01 0 0 0
4112 2 -7.3921617412401943e+00 -8.6706952804001496e+00 -2.0705609364141257e+01 0 0 0
3210 2 -9.2898724455905359e+00 -8.9111189483824056e+00 -1.7362670385122787e+01 0 0 0
69 1 -7.4720028916945473e+00 -6.2239385363343525e+00 -2.0880109405844838e+01 0 0 0
4203 2 -9.5734421303202399e+00 -7.5115765074334178e+00 -1.9594625356784253e+01 0 0 0
1661 1 -7.4390281822594098e+00 -7.4856067996589486e+00 -1.8584375420703061e+01 0 0 0
103 1 -9.2843022761124967e+00 -6.4069909615324780e+00 -1.7444800230083459e+01 0 0 0
7 1 -5.1234530902629620e+00 -8.9604975164229792e+00 -1.9630190147899750e+01 0 0 0
2607 1 -2.8849572592742905e+00 -8.9837580946399065e+00 -1.8218513393882120e+01 0 0 0
622 1 -5.1545455613691979e+00 -6.3818014547786159e+00 -1.9440883769384016e+01 0 0 0
3279 2 -2.9890379572456243e+00 -7.8021953975874441e+00 -2.0334699916017247e+01 0 0 0
3637 2 -2.8784319954934512e+00 -6.3415669578934688e+00 -1.8114218677309065e+01 0 0 0
2043 1 -5.0911383456390853e+00 -7.7353064104486231e+00 -1.7200157095779840e+01 0 0 0
2719 1 1.0240683305948228e+00 -8.9138279341273972e+00 -2.0176059706356249e+01 0 0 0
1597 1 -8.3594074640392713e-01 -7.7580523724995230e+00 -1.9017661368842703e+01 0 0 0
5350 2 9.3345833445142223e-01 -6.3352800059048313e+00 -1.9842161606907460e+01 0 0 0
5279 2 1.3427735941227308e+00 -7.8257142421119390e+00 -1.7835047496503030e+01 0 0 0
248 1 3.1518833260360872e+00 -9.0454319097570579e+00 -1.8709541178854160e+01 0 0 0
3510 2 3.3587036735509743e+00 -6.4276477490184973e+00 -1.8625262630248763e+01 0 0 0
1443 1 5.4047453477136109e+00 -9.1292965929145584e+00 -1.7407239878766781e+01 0 0 0
226 1 5.3753492760679178e+00 -7.6336671271006526e+00 -1.9564164016398948e+01 0 0 0
3071 2 5.6431148439179406e+00 -6.4738613947578365e+00 -1.7305703967562284e+01 0 0 0
44 1 7.3353401141705517e+00 -8.8364519261616401e+00 -2.0596406211626533e+01 0 0 0
2768 1 7.3893710738106764e+00 -6.3535036997534640e+00 -2.0292232438396564e+01 0 0 0
147 1 7.5429287080500966e+00 -7.6970367727385591e+00 -1.8120515488066275e+01 0 0 0
3552 2 9.6812822107936345e+00 -6.2611350585613144e+00 -1.8983609139918979e+01 0 0 0
1190 1 9.3779506513717994e+00 -8.7964311375686499e+00 -1.9166210454763853e+01 0 0 0
5186 2 1.1575671443759276e+01 -9.1906819066645422e+00 -1.7791050756294382e+01 0 0 0
4583 2 1.1891072948067164e+01 -6.8177604647509167e+00 -1.7449412639341190e+01 0 0 0
2903 2 -1.5147668146727733e+01 -2.4482687854953973e+00 -1.9014426103249395e+01 0 0 0
3720 2 -1.3482406877669186e+01 -4.9942020512263312e+00 -1.7813357764645382e+01 0 0 0
1825 1 -1.3180740814705860e+01 -2.5538273117350321e+00 -1.7622142385661782e+01 0 0 0
4294 2 -1.1339300738627223e+01 -3.8677810249819822e+00 -1.8550601224459108e+01 0 0 0
10 1 -7.2550004823378140e+00 -5.1899979742345117e+00 -1.8425058070293442e+01 0 0 0
2378 1 -9.4332053038358747e+00 -5.0710227163813313e+00 -1.9752349996534054e+01 0 0 0
1258 1 -7.3875099860992144e+00 -3.7282846697280694e+00 -2.0580050175414083e+01 0 0 0
1897 1 -9.2800165668413239e+00 -2.5841189927380426e+00 -1.9698581349110231e+01 0 0 0
4359 2 -7.0471432774080656e+00 -2.6459291179035032e+00 -1.8230100532120321e+01 0 0 0
2175 1 -9.1198593470034943e+00 -3.8087926233928715e+00 -1.7517829018755030e+01 0 0 0
3725 2 -3.0822994748094299e+00 -5.1005981527621236e+00 -2.0122761248642885e+01 0 0 0
1113 1 -3.0785962587597870e+00 -2.4560679599692832e+00 -1.9896725821291756e+01 0 0 0
26 1 -5.0543049504999491e+00 -3.9384500547885777e+00 -1.9246416631598731e+01 0 0 0
2663 1 -2.9556266892565763e+00 -3.8935061448667283e+00 -1.7817961974104694e+01 0 0 0
3509 2 -4.9693660569633735e+00 -5.2064415159072954e+00 -1.7138907486616542e+01 0 0 0
755 1 -4.9288462669743112e+00 -2.7268267719353130e+00 -1.7039712249419630e+01 0 0 0
4643 2 -8.7040915173180022e-01 -4.9730991271998750e+00 -1.8860686023984371e+01 0 0 0
1484 1 1.4061441414866260e+00 -5.1446495661682068e+00 -1.7676740037728923e+01 0 0 0
3457 2 -8.4778530223756909e-01 -2.5065281932665155e+00 -1.8843322035044217e+01 0 0 0
1898 1 1.1181443480149436e+00 -3.6245161267799024e+00 -1.9755638578208963e+01 0 0 0
2349 1 1.5014210698466728e+00 -2.5972848462101714e+00 -1.7527042299489910e+01 0 0 0
3503 2 3.1569075878146879e+00 -4.8629114954436403e+00 -2.0493906534240274e+01 0 0 0
5023 2 3.3661605035677873e+00 -3.8554209687376977e+00 -1.8351073409045373e+01 0 0 0
1222 1 5.4241459731101287e+00 -2.5147613064616317e+00 -1.9326656645730782e+01 0 0 0
4810 2 5.3876982937783469e+00 -5.0974350739758112e+00 -1.9566205260894961e+01 0 0 0
3053 2 5.6998208108499293e+00 -3.9331620873223261e+00 -1.7025934909330932e+01 0 0 0
530 1 7.7008932601450777e+00 -5.2193941935008530e+00 -1.8045433500744647e+01 0 0 0
2182 1 7.6244457779931691e+00 -3.7969393967218354e+00 -1.9858653422568889e+01 0 0 0
1746 1 7.8169822680228727e+00 -2.4433889038068681e+00 -1.7616969751766597e+01 0 0 0
4576 2 1.1778713264804999e+01 -4.5621965845897261e+00 -1.9146116516792141e+01 0 0 0
3319 2 1.1534431978795084e+01 -2.3093907138419527e+00 -2.0068120925632424e+01 0 0 0
4083 2 9.7299789501885066e+00 -3.7419558104084638e+00 -1.8357647508244323e+01 0 0 0
4363 2 1.1493488103592272e+01 -2.0273170427150982e+00 -1.7762657507251948e+01 0 0 0
150 1 1.3601160840387527e+01 -2.9262877323563372e+00 -1.8743990395508874e+01 0 0 0
4791 2 1.4184172074089226e+01 -5.2376028228477898e+00 -1.7780272315589549e+01 0 0 0
2964 2 1.5695182402237814e+01 -3.0918881242313665e+00 -1.7381839506498977e+01 0 0 0
4466 2 -1.3317427103728312e+01 -9.2968532224165201e-01 -1.9716966070415371e+01 0 0 0
3253 2 -1.1224244239153963e+01 -1.3255023848916694e+00 -1.8485264633194408e+01 0 0 0
334 1 5.7678533114973360e+00 -1.1267992577356511e+00 -1.4276809296292929e+00 0 0 0
4839 2 -7.1891472970084056e+00 -1.1849205031942782e+00 -2.0405852343702634e+01 0 0 0
766 1 -9.0362890032979966e+00 -1.4487353762136945e+00 -1.7172697342325062e+01 0 0 0
2618 1 -4.9510005930902636e+00 -1.3863972044068982e+00 -1.9146931187047947e+01 0 0 0
1600 1 -2.8041463532755424e+00 -1.2626434552288268e+00 -1.7748199108526695e+01 0 0 0
1392 1 3.5344633547608124e+00 -4.8977580746982580e-01 -2.7131528518755887e-01 0 0 0
3451 2 1.1706053180573975e-01 -7.6823660196894095e-01 -1.0642112459689101e+00 0 0 0
3508 2 1.3221194487328340e+00 -1.3031355723333651e+00 -1.9541768838899568e+01 0 0 0
4311 2 3.5592520171422457e+00 -1.2916967517328559e+00 -1.8379363475752246e+01 0 0 0
944 1 7.2102302956460660e+00 -1.4212133002415475e+00 -2.0849412899987087e+01 0 0 0
1945 1 5.7222261596567465e+00 -1.2873531801625011e+00 -1.7151647372430659e+01 0 0 0
3164 2 9.3322900735061332e+00 -1.6947021866433565e+00 -1.9445335423191636e+01 0 0 0
771 1 -3.5610540812226512e+00 -1.1359667132208002e+00 -1.5470319258485259e+00 0 0 0
3383 2 9.7195238199570664e+00 -6.3431887105411955e-01 -1.7048694985468810e+01 0 0 0
942 1 1.3244999954588319e+01 -2.5920617761883691e-01 -1.7553070981841330e+01 0 0 0
152 1 1.2482919615347439e+00 -2.0853282214711360e+01 -1.4727777174093788e+01 0 0 0
4031 2 3.3374833929575094e+00 -2.0861943897322384e+01 -1.3267233102248470e+01 0 0 0
5231 2 8.9848587205700827e+00 -2.1004640199428682e+01 -1.3502171333757905e+01 0 0 0
1705 1 -5.7459309903549354e+00 -1.7790740846919739e+01 -1.3078486380321314e+01 0 0 0
673 1 -3.8091987952819939e+00 -1.7628073846582858e+01 -1.6130405837839220e+01 0 0 0
16 1 -3.3458841244968123e+00 -1.8616064325900368e+01 -1.3577395332502460e+01 0 0 0
4580 2 -1.6480300502140093e+00 -1.7608868595255114e+01 -1.4893450376413556e+01 0 0 0
2526 1 4.5904329760162343e-01 -1.8850032447641620e+01 -1.5933845565009094e+01 0 0 0
4330 2 -1.0404832745443731e+00 -1.9826783422531179e+01 -1.4047741638425611e+01 0 0 0
3736 2 5.1385404424649672e-01 -1.7736144302153242e+01 -1.3673444093647038e+01 0 0 0
65 1 4.0712472414423084e+00 -1.7713715231094298e+01 -1.6104628708684249e+01 0 0 0
4955 2 2.5802130090476689e+00 -1.8739161848274509e+01 -1.4521083141274548e+01 0 0 0
183 1 4.8068244983796520e+00 -1.9794442369098022e+01 -1.4836937158255910e+01 0 0 0
109 1 6.2352589095359994e+00 -1.7932155187780793e+01 -1.4761048890149993e+01 0 0 0
5291 2 8.4771958296519756e+00 -1.9042610035264833e+01 -1.5272978236502516e+01 0 0 0
199 1 6.7031178323166500e+00 -1.9871568530183293e+01 -1.3315454774659059e+01 0 0 0
3894 2 1.0573703817162665e+01 -1.9129852660607547e+01 -1.3278825691264576e+01 0 0 0
2491 1 1.0058353906152256e+01 -1.7200721971788887e+01 -1.4677076989794752e+01 0 0 0
4332 2 1.2148128637258246e+01 -1.7184884969797398e+01 -1.3066253782662006e+01 0 0 0
4411 2 -1.0525540185500491e+01 -1.4044394882191179e+01 -1.3853466123475021e+01 0 0 0
201 1 -9.1665822815100686e+00 -1.3981069347923835e+01 -1.7329854213754512e+01 0 0 0
385 1 -8.2127483564516570e+00 -1.5243008321418726e+01 -1.4607101522331160e+01 0 0 0
1599 1 -6.8138129594933101e+00 -1.4043193106803878e+01 -1.6207673161443594e+01 0 0 0
2943 2 -6.0504987645668411e+00 -1.6414941008868407e+01 -1.5254318741305088e+01 0 0 0
4054 2 -6.0643817614959366e+00 -1.5243270665721980e+01 -1.3189386500353681e+01 0 0 0
2063 1 -4.6913488088288595e+00 -1.5412511121982124e+01 -1.7135270393202600e+01 0 0 0
4901 2 -3.7490919150084419e+00 -1.6414466513294521e+01 -1.3924987713282443e+01 0 0 0
5444 2 -4.6193733923131388e+00 -1.4096352390658215e+01 -1.4920642319290961e+01 0 0 0
1430 1 -2.6611733801350810e+00 -1.5488471758307362e+01 -1.5999422626779818e+01 0 0 0
2454 1 -2.4420521447808263e+00 -1.4257181163129049e+01 -1.3747730912304025e+01 0 0 0
3105 2 -7.1668807590638117e-01 -1.4073561099010517e+01 -1.7006889352874740e+01 0 0 0
129 1 -3.4289790840035178e-01 -1.6671200078329349e+01 -1.6842314167614976e+01 0 0 0
1203 1 -4.1550921306086230e-01 -1.5476718187832715e+01 -1.4703067664984493e+01 0 0 0
4432 2 1.4278285597494174e+00 -1.4296130730421996e+01 -1.5811497838683067e+01 0 0 0
4821 2 1.7661578833810367e+00 -1.6765989527578796e+01 -1.5612241431322088e+01 0 0 0
4585 2 3.9116291184856449e+00 -1.6709644876252927e+01 -1.3900913271802724e+01 0 0 0
2998 2 3.5866262603261112e+00 -1.5361935062935911e+01 -1.6538096039723165e+01 0 0 0
2312 1 3.6994194894361154e+00 -1.4181478869225790e+01 -1.4380087402079287e+01 0 0 0
694 1 7.3937521244151538e+00 -1.4392022270124713e+01 -1.6755393134768354e+01 0 0 0
2594 1 7.8945789227719372e+00 -1.6947027755043596e+01 -1.6119931174518076e+01 0 0 0
4218 2 5.7672163306309931e+00 -1.5516605903934389e+01 -1.5232550279452225e+01 0 0 0
2012 1 8.1042100587720647e+00 -1.5757751938527969e+01 -1.4014820324794448e+01 0 0 0
5419 2 5.7330211556658597e+00 -1.4533087327412771e+01 -1.2962239039524279e+01 0 0 0
2980 2 9.4538181227976157e+00 -1.4648543081812091e+01 -1.5765265137148756e+01 0 0 0
3470 2 1.1588238079329805e+01 -1.4904485461796442e+01 -1.4231222629322914e+01 0 0 0
848 1 1.1671677143836952e+01 -1.3353949317898865e+01 -1.6167701960806788e+01 0 0 0
4944 2 9.6818752574584774e+00 -1.3586658596722867e+01 -1.3347718106489827e+01 0 0 0
3977 2 1.3899476311054002e+01 -1.3451192048102190e+01 -1.4578337241936209e+01 0 0 0
790 1 -1.5489596936048089e+01 -9.9819222835943968e+00 -1.4372112048288855e+01 0 0 0
4226 2 -1.1374392321058590e+01 -1.0191410866756913e+01 -1.6652677094795752e+01 0 0 0
2981 2 -1.1123084962372163e+01 -1.1697571367076735e+01 -1.4447689898367416e+01 0 0 0
1687 1 -1.3006831167636657e+01 -1.0261523013285176e+01 -1.3111486805099107e+01 0 0 0
4888 2 -1.2825184514700389e+01 -1.2766653185659962e+01 -1.3021352064629086e+01 0 0 0
1416 1 -6.6704822346778574e+00 -1.2858203603526201e+01 -1.4005169843688883e+01 0 0 0
255 1 -8.9386343576017069e+00 -1.2619733917751658e+01 -1.5314327417616923e+01 0 0 0
1061 1 -9.1283695036088410e+00 -1.0215174476962087e+01 -1.5233099782830244e+01 0 0 0
915 1 -7.0133805158727673e+00 -1.1504992023432255e+01 -1.6313493603301318e+01 0 0 0
1440 1 -7.0269502437212861e+00 -1.0407932591902913e+01 -1.4132364557004427e+01 0 0 0
1448 1 -4.9314182741918264e+00 -1.2730836415348586e+01 -1.7157069612608215e+01 0 0 0
4131 2 -2.6923708228496013e+00 -1.2796126197244764e+01 -1.6101357251850089e+01 0 0 0
4668 2 -4.7112936764432938e+00 -1.1561848584221906e+01 -1.5070791347685255e+01 0 0 0
1749 1 -2.9372119066735318e+00 -1.0223491288507844e+01 -1.6020712303039573e+01 0 0 0
1985 1 -2.7069470915396230e+00 -1.1884532969704180e+01 -1.3669898804248335e+01 0 0 0
3536 2 -8.5197505220346403e-01 -1.1647667673347970e+01 -1.6967463410899192e+01 0 0 0
885 1 -4.2829019736167467e-01 -1.2848423531337259e+01 -1.4704335756785913e+01 0 0 0
715 1 -8.0252577664803848e-01 -1.0431499335159637e+01 -1.4640676857601882e+01 0 0 0
2978 2 1.3776295062782540e+00 -1.1801982694391175e+01 -1.5873572776420957e+01 0 0 0
815 1 1.4605267541244769e+00 -1.0628329476038873e+01 -1.3386779214529804e+01 0 0 0
2984 2 1.6278685676368665e+00 -1.3084834211626863e+01 -1.3255088405040770e+01 0 0 0
89 1 3.3490722446378691e+00 -1.3043473610954234e+01 -1.6916554811161024e+01 0 0 0
1397 1 3.2789049557887302e+00 -1.0428765947468454e+01 -1.6781534581840535e+01 0 0 0
2438 1 3.5295650403246821e+00 -1.1627650423269060e+01 -1.4545286013247841e+01 0 0 0
2084 1 7.4619255145542098e+00 -1.3262154868625197e+01 -1.4432723886518680e+01 0 0 0
1684 1 5.4866731219285256e+00 -1.3085352782858845e+01 -1.5729477469499763e+01 0 0 0
1545 1 5.6570460761708468e+00 -1.0636872284830933e+01 -1.5439152533769315e+01 0 0 0
4613 2 5.5716835106590983e+00 -1.2123131632437996e+01 -1.3439009377655944e+01 0 0 0
362 1 7.5061876054279919e+00 -1.1825092189839657e+01 -1.6642163978480973e+01 0 0 0
3373 2 7.6558654541192332e+00 -1.0794543337308275e+01 -1.4174077454881552e+01 0 0 0
4289 2 1.1858047622128328e+01 -1.2274523649392796e+01 -1.3839137138007956e+01 0 0 0
3124 2 9.5033011984101048e+00 -1.2112857562300398e+01 -1.5297232536120587e+01 0 0 0
2109 1 1.1676292213946819e+01 -1.0770232732074467e+01 -1.5793151300903880e+01 0 0 0
554 1 1.1842073225588319e+01 -9.8635274578287397e+00 -1.3448717733366760e+01 0 0 0
358 1 1.3692379454114315e+01 -1.1848920430919412e+01 -1.6576919664210127e+01 0 0 0
4609 2 1.3991317721169139e+01 -1.1047017633394711e+01 -1.4277385316659840e+01 0 0 0
793 1 1.6013288950368512e+01 -9.5551792461590015e+00 -1.4766807891889830e+01 0 0 0
3454 2 1.3821861315697296e+01 -9.4328939548820667e+00 -1.6387321447109230e+01 0 0 0
642 1 1.8093311785303385e+01 -9.6548358150644908e+00 -1.3171530662320684e+01 0 0 0
818 1 -1.9598181742335978e+01 -6.0557230207950639e+00 -1.4890395077358654e+01 0 0 0
3153 2 -1.7485311630787979e+01 -7.2965392983751123e+00 -1.5649167676876084e+01 0 0 0
4722 2 -1.5551667411626816e+01 -8.6890200467741678e+00 -1.6509915274887167e+01 0 0 0
2303 1 -1.7278006742412035e+01 -8.5883376743868176e+00 -1.3514966691850129e+01 0 0 0
835 1 -1.5595600313913172e+01 -6.2487339732975675e+00 -1.6724506769096863e+01 0 0 0
515 1 -1.5190682423776121e+01 -7.5212863038670781e+00 -1.4478644259826698e+01 0 0 0
3822 2 -1.7274898625382733e+01 -6.1639030524864786e+00 -1.3624953983515216e+01 0 0 0
169 1 -1.3464976678659367e+01 -9.0562042213902547e+00 -1.5306790404589860e+01 0 0 0
3282 2 -1.1143488801816970e+01 -9.0306008709298027e+00 -1.4321137760922841e+01 0 0 0
4229 2 -1.3321066423562025e+01 -6.4171568762706270e+00 -1.5509088976206018e+01 0 0 0
1425 1 -1.1350873817896607e+01 -7.7169253953706747e+00 -1.6480755944808010e+01 0 0 0
3624 2 -1.1060799750599424e+01 -6.4701655389694785e+00 -1.4345211074654609e+01 0 0 0
3354 2 -7.1606931953371866e+00 -9.0460935790941406e+00 -1.6322536050218087e+01 0 0 0
2240 1 -9.0737791146114404e+00 -7.5863220645695488e+00 -1.5281138290896424e+01 0 0 0
1745 1 -7.0772133841341693e+00 -6.4293650888765699e+00 -1.6223440355363330e+01 0 0 0
1026 1 -6.9129043294885282e+00 -7.7785092310689334e+00 -1.3976337258048154e+01 0 0 0
378 1 -2.8251796496486339e+00 -9.2714038464955131e+00 -1.3674677929639953e+01 0 0 0
3113 2 -4.9808184974912555e+00 -9.0466600728207940e+00 -1.5082065674635773e+01 0 0 0
3902 2 -5.0031466951413632e+00 -6.4116483051548734e+00 -1.4922908424711309e+01 0 0 0
1636 1 -2.8380877949918952e+00 -7.7349162909750557e+00 -1.5995016472592935e+01 0 0 0
3223 2 -2.7698577736924554e+00 -6.7445988979137397e+00 -1.3692401414899564e+01 0 0 0
3311 2 -8.0260087849730699e-01 -9.0319684556582303e+00 -1.6865222114735346e+01 0 0 0
3500 2 1.3283701800163092e+00 -9.2444283194631396e+00 -1.5795643145981581e+01 0 0 0
3657 2 -7.8795836864139168e-01 -6.5078657710102261e+00 -1.6747548665070092e+01 0 0 0
4724 2 -6.0473670611435792e-01 -7.8422852553217997e+00 -1.4543935385356805e+01 0 0 0
4694 2 1.3986535616261371e+00 -6.7221584720241969e+00 -1.5657844975409336e+01 0 0 0
4788 2 1.6022728274242677e+00 -8.0543100801596559e+00 -1.3396533060018315e+01 0 0 0
3423 2 3.6394407286703494e+00 -9.2047866170609769e+00 -1.4376990036060688e+01 0 0 0
1731 1 3.5600627055676508e+00 -7.8718530358866206e+00 -1.6400379476090912e+01 0 0 0
1022 1 3.6086052592128848e+00 -6.6425933151020073e+00 -1.4179054593337611e+01 0 0 0
184 1 5.7814728152127328e+00 -8.0357812564417479e+00 -1.5109373831263955e+01 0 0 0
3203 2 7.6495537250822183e+00 -9.2606064721175105e+00 -1.6289139461821012e+01 0 0 0
3280 2 7.8118631412549870e+00 -8.2256742399620908e+00 -1.3770646630581600e+01 0 0 0
1660 1 7.7221536482918545e+00 -6.5447606841160813e+00 -1.5933717442055686e+01 0 0 0
4988 2 5.7522868043835285e+00 -9.4463847075699157e+00 -1.3031938083466517e+01 0 0 0
682 1 9.7313455572635466e+00 -7.8494107542680043e+00 -1.6876147089027828e+01 0 0 0
5417 2 9.7932205882435177e+00 -9.4831671847136061e+00 -1.4840963352558092e+01 0 0 0
3072 2 1.1844291450504478e+01 -8.1730841210769114e+00 -1.5367586052395691e+01 0 0 0
243 1 9.7960794699751652e+00 -7.0429799268841480e+00 -1.4322094294924209e+01 0 0 0
2003 1 1.1888021905137427e+01 -5.7691188162287048e+00 -1.5058925463633072e+01 0 0 0
4798 2 1.3910543256925880e+01 -8.5036738113479906e+00 -1.3941302987214664e+01 0 0 0
210 1 1.3969427892912709e+01 -6.9577582662535500e+00 -1.6005404192420936e+01 0 0 0
699 1 1.6088520645083072e+01 -7.1741186865445608e+00 -1.4299203144563819e+01 0 0 0
2294 1 1.4105143609232217e+01 -6.0997680356890074e+00 -1.3476565408764399e+01 0 0 0
3382 2 1.6135694880245989e+01 -5.3338897392514770e+00 -1.6104049061677745e+01 0 0 0
5226 2 1.8324332839282945e+01 -5.6924048449744689e+00 -1.4418756165486229e+01 0 0 0
1263 1 -2.1555791456688493e+01 -2.2205333930050490e+00 -1.3806416620105770e+01 0 0 0
430 1 -2.1498128220473628e+01 -4.7230664812229728e+00 -1.3699004254222547e+01 0 0 0
5019 2 -1.9548211754799258e+01 -3.5226200158004626e+00 -1.4809796106738851e+01 0 0 0
2038 1 -1.7715989002476270e+01 -4.8495840724618979e+00 -1.6066591763347404e+01 0 0 0
5053 2 -1.5439833452602649e+01 -5.1167453097508266e+00 -1.4654132724269688e+01 0 0 0
4727 2 -1.5416042463062494e+01 -3.7125735251542338e+00 -1.6883052861722994e+01 0 0 0
1557 1 -1.7619625729187931e+01 -2.2194324215896910e+00 -1.5867397080418314e+01 0 0 0
3667 2 -1.7323749806127786e+01 -3.7705555798497628e+00 -1.3780814910388006e+01 0 0 0
1927 1 -1.5296789866776891e+01 -2.5476863732942880e+00 -1.4606595409703031e+01 0 0 0
2578 1 -1.1332184851171835e+01 -5.1782703207256491e+00 -1.6425793636115834e+01 0 0 0
1885 1 -1.1154625598596358e+01 -3.8980432234205411e+00 -1.4140602392475225e+01 0 0 0
1833 1 -1.3354684493476364e+01 -3.8197648010639416e+00 -1.5490270756286833e+01 0 0 0
3169 2 -1.1159997796506087e+01 -2.6850055831963737e+00 -1.6382048191069412e+01 0 0 0
504 1 -1.3056357112161493e+01 -2.5448641323530041e+00 -1.3265236362665279e+01 0 0 0
3178 2 -1.3151259408798536e+01 -5.0350387057120338e+00 -1.3398158213247742e+01 0 0 0
4892 2 -6.7717981986766524e+00 -5.0972700130579511e+00 -1.3802691966059601e+01 0 0 0
3080 2 -9.0360433646271083e+00 -5.1442677535233718e+00 -1.5255151713183503e+01 0 0 0
3709 2 -6.9387846572676422e+00 -3.9009970556806954e+00 -1.6124702622361333e+01 0 0 0
2170 1 -9.0444953699413499e+00 -2.7827122229602943e+00 -1.4989127692807235e+01 0 0 0
1176 1 -6.8398091968866606e+00 -2.5754714880266314e+00 -1.3746358573682201e+01 0 0 0
324 1 -2.6647018691733906e+00 -5.3266198403046081e+00 -1.5629580437515722e+01 0 0 0
4340 2 -2.6030283786230513e+00 -3.9921093334802893e+00 -1.3596877243023878e+01 0 0 0
888 1 -4.6996202795779514e+00 -3.9993776192471433e+00 -1.4825997968001218e+01 0 0 0
4016 2 -2.6735206457627134e+00 -2.5902545664341674e+00 -1.5623162644422209e+01 0 0 0
1177 1 -3.9950645467997781e-01 -5.3266877287849992e+00 -1.4534292684312959e+01 0 0 0
151 1 -7.0138441345293678e-01 -3.8725731053348831e+00 -1.6474706653035721e+01 0 0 0
1292 1 -5.5447372235209502e-01 -2.8001866492629057e+00 -1.4419027421105465e+01 0 0 0
1540 1 1.6355508937383341e+00 -4.0506248464874899e+00 -1.5366579939373574e+01 0 0 0
1753 1 1.6169769473044735e+00 -5.3067684921305869e+00 -1.3221096661434528e+01 0 0 0
2162 1 1.7857393107562973e+00 -2.8166988182709387e+00 -1.3319344964121816e+01 0 0 0
1021 1 3.5745564861821424e+00 -5.3886315714318300e+00 -1.6329442598654722e+01 0 0 0
646 1 3.7628022558103811e+00 -4.0402264500165117e+00 -1.4135787618878568e+01 0 0 0
1065 1 3.7115229867252220e+00 -2.7323209993162236e+00 -1.6150351932210466e+01 0 0 0
731 1 7.7843593478628197e+00 -5.7198853327225727e+00 -1.3617376049025289e+01 0 0 0
945 1 5.8664408294294885e+00 -2.8360323861264227e+00 -1.4867523917731967e+01 0 0 0
1204 1 5.7164717485132295e+00 -5.3943440152818338e+00 -1.4986062976748336e+01 0 0 0
366 1 8.0259458863094366e+00 -4.1118125100451390e+00 -1.5752081068178972e+01 0 0 0
5022 2 7.9651534307237588e+00 -3.1471629814255633e+00 -1.3285245560044430e+01 0 0 0
4502 2 1.1960065063092003e+01 -4.2896539820680131e+00 -1.6793548992866430e+01 0 0 0
5057 2 9.9205915331624261e+00 -5.4801694347526357e+00 -1.6553248962477884e+01 0 0 0
659 1 9.9486991905310518e+00 -4.3630381221930490e+00 -1.4054621837685282e+01 0 0 0
1743 1 1.0065182624880324e+01 -2.8495754268141180e+00 -1.5973443212771766e+01 0 0 0
5201 2 1.2291625068525262e+01 -3.2611045458039576e+00 -1.4379654706489484e+01 0 0 0
4527 2 1.4031356950243698e+01 -4.5812770532818776e+00 -1.5343050320306357e+01 0 0 0
1438 1 1.6305082933015527e+01 -4.7522936123389297e+00 -1.3684067460176577e+01 0 0 0
2188 1 1.5623665432795667e+01 -2.7182743625357930e+00 -1.4992881196366897e+01 0 0 0
1383 1 1.3682726657032850e+01 -2.3712598506846483e+00 -1.6319272440917249e+01 0 0 0
883 1 1.7935163547540160e+01 -3.6173011744049739e+00 -1.5285124934015398e+01 0 0 0
3772 2 1.9745545515566764e+01 -3.7926043530073406e+00 -1.3567593195722784e+01 0 0 0
100 1 1.7328936731242646e+01 -2.5678147412604542e+00 -1.3203252606013278e+01 0 0 0
3718 2 -1.9466889189492896e+01 -9.7418904044886911e-01 -1.4870145405840336e+01 0 0 0
1624 1 -1.0135313009452366e+01 -1.4504495561207358e+00 -7.3907544238823941e-01 0 0 0
5361 2 -1.5559792187280783e+01 -1.2157694141091475e+00 -1.6830136435807468e+01 0 0 0