LAMMPS data file via write_data, version 12 Dec 2018, timestep = 2410000

5473 atoms
2 atom types

-2.5212471353251427e+01 2.4600923597373544e+01 xlo xhi
-2.5644722830407211e+01 2.5191824465354124e+01 ylo yhi
-2.4686567170422304e+01 2.5778113082606076e+01 zlo zhi

Masses

1 63.5
2 63.5

Atoms # atomic

1339 1 6.8688715774448439e-01 -1.3631742460523009e+01 -2.1250062402029062e+01 0 0 0
481 1 -3.1728031303526425e+00 -1.1205523616051632e+01 -2.1451724378194637e+01 0 0 0
621 1 1.2878638937063480e+00 -1.0239623447149260e+01 -2.1984855962064049e+01 0 0 0
8 1 -6.0036293463073387e-01 -1.1569696490765727e+01 -2.0920761254411662e+01 0 0 0
4449 2 2.5817269173059647e+00 -1.2303653897262569e+01 -2.2463798049769245e+01 0 0 0
112 1 3.8006204479389605e+00 -1.0660301394061126e+01 -2.1261227873768085e+01 0 0 0
122 1 6.0457742562150125e+00 -1.1625714310013825e+01 -2.1677503490741412e+01 0 0 0
501 1 9.1110869678052655e+00 -1.0971114759059713e+01 -2.0901710007170625e+01 0 0 0
3154 2 -7.9225249683350238e+00 -6.3880553662508097e+00 -2.0815196827650755e+01 0 0 0
3228 2 -4.2555816392417922e+00 -8.9998682933365401e+00 -2.0830941201306267e+01 0 0 0
905 1 -2.4623088422900423e+00 -7.6990783578411479e+00 -2.2018115458095515e+01 0 0 0
824 1 9.3540786924174155e-02 -8.1125081653529154e+00 -2.1481419426941841e+01 0 0 0
2132 1 -5.6122631412928936e-01 -6.4972007112773555e+00 -2.3151741312683797e+01 0 0 0
4186 2 -1.2373708441725804e+00 -5.9120520968095409e+00 -2.0926923020856272e+01 0 0 0
3576 2 1.9746574274463493e+00 -6.7368858408684611e+00 -2.2465743239683714e+01 0 0 0
4630 2 3.1271171463653706e+00 -8.9391587485685360e+00 -2.3055074869421500e+01 0 0 0
4162 2 4.4222872136017308e+00 -6.9675916691422657e+00 -2.1872004038691436e+01 0 0 0
611 1 2.5180068105347146e+00 -8.4796579273173087e+00 -2.0708251496201797e+01 0 0 0
243 1 5.5612076300188926e+00 -9.1561478409263231e+00 -2.2500685562597372e+01 0 0 0
2412 1 8.8135679293235896e+00 -6.1804491383602791e+00 -2.2368553794180418e+01 0 0 0
3546 2 6.8728736578887828e+00 -7.3512660974190140e+00 -2.1207465763604016e+01 0 0 0
4662 2 9.1715614516731936e+00 -8.5631000302109825e+00 -2.1548844704571774e+01 0 0 0
1699 1 6.2312958292956546e+00 -5.8580224441002064e+00 -2.3161127659813225e+01 0 0 0
4244 2 1.2439078743916570e+01 -7.9014069064379884e+00 -2.1050127538811239e+01 0 0 0
531 1 -1.1422883699227778e+01 -3.7407813288893528e+00 -2.1022624642752678e+01 0 0 0
3913 2 -7.2941460649722529e+00 -2.8123842551434270e+00 -2.1668443463905618e+01 0 0 0
4236 2 -6.1555181020505687e+00 -5.0204665860331348e+00 -2.1924875944228496e+01 0 0 0
1797 1 -3.5915719256807304e+00 -5.5194213375055519e+00 -2.1590866984731949e+01 0 0 0
4224 2 -4.3109298847808484e+00 -3.9275047856149508e+00 -2.3210942057709847e+01 0 0 0
3444 2 -4.8920404872610339e+00 -3.2708863355605842e+00 -2.1023059432692502e+01 0 0 0
4749 2 -1.6071265778600718e+00 -4.2162826640100040e+00 -2.2835206495979737e+01 0 0 0
1401 1 7.5267526920555750e-01 -4.5518689234155625e+00 -2.2114275026910001e+01 0 0 0
2618 1 1.1820258891954774e-01 -2.8568238487189825e+00 -2.3985845877811830e+01 0 0 0
1898 1 -4.5318252688114230e-01 -2.3469776205911490e+00 -2.1452348133519024e+01 0 0 0
1848 1 3.6594244842431096e+00 -5.5778212204964612e+00 -2.3746652462876849e+01 0 0 0
1736 1 2.5773122248176734e+00 -3.4394498095276771e+00 -2.3170640545638449e+01 0 0 0
3840 2 3.2213773570236182e+00 -4.9285228589144987e+00 -2.1368456032255089e+01 0 0 0
5164 2 5.1271607832513677e+00 -3.7472411643752208e+00 -2.2624081123263679e+01 0 0 0
1406 1 4.4818971114470001e+00 -2.1296379123131053e+00 -2.4676567170422302e+01 0 0 0
3131 2 2.0032173365431452e+00 -2.7051975241062798e+00 -2.0822205416956777e+01 0 0 0
3189 2 7.5793026059138873e+00 -4.0160495577929263e+00 -2.2004101649462882e+01 0 0 0
505 1 6.8493314374868675e+00 -2.1687509495147683e+00 -2.3933709860764143e+01 0 0 0
2967 2 9.2118978310730952e+00 -2.5610265786669375e+00 -2.3158590262548085e+01 0 0 0
3183 2 5.6837343000173712e+00 -5.3030443140683419e+00 -2.0778118554819066e+01 0 0 0
3452 2 8.6871862184488648e+00 -1.9864890976153418e+00 -2.0686502419183714e+01 0 0 0
4672 2 6.2464445238563311e+00 -1.8542650742363829e+00 -2.1622699345804264e+01 0 0 0
2070 1 1.1970498847482251e+01 -5.3975438178682600e+00 -2.1628707522663007e+01 0 0 0
3020 2 1.0238130576410502e+01 -4.8204424795908078e+00 -2.3554033816890243e+01 0 0 0
1609 1 1.1805632400362670e+01 -3.0017436063648080e+00 -2.2479740533726019e+01 0 0 0
3880 2 9.9147073992996759e+00 -4.1988998149006322e+00 -2.1214316181274274e+01 0 0 0
3520 2 2.1938936230368984e+01 -4.4348900655631696e-01 -8.4565939219438810e+00 0 0 0
1745 1 -1.2664314923057495e+01 -1.6185901648302059e+00 -2.0566337162764761e+01 0 0 0
4711 2 -8.2679929985283156e+00 -7.6366921297511947e-01 -2.1083270877125404e+01 0 0 0
5233 2 -2.9266762381257565e+00 -2.1656634141475690e+00 -2.2205006370251443e+01 0 0 0
3534 2 -5.3017162878752746e+00 -1.6444738347177055e+00 -2.2787846243387602e+01 0 0 0
1566 1 -1.0764182292192881e+00 -7.5766177905140775e-01 -2.3336202948224248e+01 0 0 0
2194 1 1.3291725752889951e+00 -1.1306582106867884e+00 -2.2722623730929325e+01 0 0 0
1326 1 2.0410391693898788e+01 -2.6726321939175306e+00 3.4695902093787967e-01 0 0 0
4325 2 3.8314171212984336e+00 -1.5493046730228404e+00 -2.2124348151642728e+01 0 0 0
5058 2 8.1249151431563149e+00 -3.9963108299371419e-01 -2.2528841471209855e+01 0 0 0
254 1 1.8390080370438799e+01 -3.5031050354767079e+00 -9.4145908634190356e-01 0 0 0
3745 2 1.0734784914343196e+01 -8.6453779919291229e-01 -2.1891204261869007e+01 0 0 0
2009 1 1.3143767486583283e+01 -1.1902452274727355e+00 -2.1142689051006421e+01 0 0 0
571 1 -8.3505380438141845e+00 -1.5135957255988236e+01 -1.7892101260358377e+01 0 0 0
2912 2 -6.4136440023115773e+00 -1.3945299380345260e+01 -1.8800295990342175e+01 0 0 0
4695 2 -6.1596269032234812e+00 -1.5732941699090665e+01 -1.7041873084177112e+01 0 0 0
16 1 -4.1089116939879107e+00 -1.4266928751001526e+01 -1.8282958320241253e+01 0 0 0
259 1 -1.6546159752107834e+00 -1.4578247440969113e+01 -1.7795311808627034e+01 0 0 0
4143 2 4.4959082612788587e-01 -1.5460575456779395e+01 -1.8082266615000623e+01 0 0 0
5192 2 -1.4154613727403764e+00 -1.6784955920357113e+01 -1.6901642655363414e+01 0 0 0
4144 2 1.6927004939322590e+00 -1.3827978165397319e+01 -1.6882165022901628e+01 0 0 0
83 1 2.2734819479890835e+00 -1.4097792644698943e+01 -1.9362721490382722e+01 0 0 0
3626 2 3.8058925443062526e+00 -1.5073803553919610e+01 -1.7588801807485464e+01 0 0 0
2030 1 8.0372837417547736e+00 -1.4637204399868345e+01 -1.9038346961864548e+01 0 0 0
34 1 6.1527439537219832e+00 -1.6089445859670935e+01 -1.7739083820933971e+01 0 0 0
1484 1 5.5909059312215357e+00 -1.3809606426997656e+01 -1.8791801062614535e+01 0 0 0
1463 1 1.1238827553768809e+01 -1.3945954935737754e+01 -1.8068868542796057e+01 0 0 0
102 1 9.4433809678207510e+00 -1.5183240059845252e+01 -1.6931035417745026e+01 0 0 0
5218 2 -1.6035448604778576e+01 -9.9091296914432263e+00 -1.7949204837345892e+01 0 0 0
2462 1 -1.3673680608701344e+01 -1.0399940031012918e+01 -1.7559573040941387e+01 0 0 0
3232 2 -1.1129021121421298e+01 -1.0776165482680682e+01 -1.6921383006216001e+01 0 0 0
219 1 -9.7414031237032024e+00 -1.2945903271498105e+01 -1.7455278988619064e+01 0 0 0
2923 2 -7.8216407120965146e+00 -1.1865511200031438e+01 -1.8669572428491975e+01 0 0 0
3960 2 -5.9525598628389718e+00 -1.0487405385070513e+01 -1.9691632164755671e+01 0 0 0
5222 2 -4.8734426820680117e+00 -1.2720898153415444e+01 -2.0161001138814076e+01 0 0 0
1646 1 -5.3944029703847720e+00 -1.2001829234837734e+01 -1.7749622395442522e+01 0 0 0
4501 2 -3.6661221339120855e+00 -1.0755646048042646e+01 -1.9107630170399904e+01 0 0 0
2248 1 -2.9511037791817252e+00 -1.2378579606875235e+01 -1.7311042940153531e+01 0 0 0
1954 1 -2.2893966276892499e+00 -1.3007034191651300e+01 -1.9751057984211233e+01 0 0 0
2218 1 -4.2693001696906592e+00 -1.0082318369394574e+01 -1.6651983656435448e+01 0 0 0
696 1 4.6617145087819369e-02 -1.3144577777556828e+01 -1.8996462231851396e+01 0 0 0
2631 1 -1.0825160410801664e+00 -1.0989467435802924e+01 -1.8520338266913516e+01 0 0 0
2948 2 1.2456567381428010e+00 -1.1465158839710554e+01 -1.7700863552867915e+01 0 0 0
2080 1 6.2986386164075547e-01 -9.7763510803665774e+00 -1.9756012981681241e+01 0 0 0
931 1 4.0427055505520499e+00 -1.3079993380170828e+01 -2.0709546059702987e+01 0 0 0
4393 2 1.9161419723801603e+00 -1.1844849316569407e+01 -2.0210334164506296e+01 0 0 0
70 1 3.5262592897897020e+00 -1.2409413513878771e+01 -1.8229297824417749e+01 0 0 0
2351 1 3.0298333131056085e+00 -1.0014090921618232e+01 -1.8887724587438935e+01 0 0 0
4210 2 4.6682398877454485e+00 -1.0516381801706331e+01 -1.7021518828861101e+01 0 0 0
1357 1 5.3546514286441544e+00 -1.1076126882568321e+01 -1.9307271902130111e+01 0 0 0
1418 1 7.1051248348170377e+00 -9.7067717480001043e+00 -2.0558713012998986e+01 0 0 0
723 1 7.4222613549235392e+00 -1.2298494550339335e+01 -1.9723675148651221e+01 0 0 0
72 1 8.8358363024246014e+00 -1.0525283471904208e+01 -1.8510024092339911e+01 0 0 0
4173 2 6.7835838098621064e+00 -1.1810063610421164e+01 -1.7385777547865974e+01 0 0 0
4694 2 9.1864855926933355e+00 -1.2826637274720150e+01 -1.7659805670555166e+01 0 0 0
234 1 9.6956481728666848e+00 -1.3350316510117414e+01 -2.0049889734541846e+01 0 0 0
3090 2 1.1010784283838090e+01 -1.1580310055656904e+01 -1.9062385789190774e+01 0 0 0
4516 2 1.2246806414478071e+01 -9.8198857241506357e+00 -1.7695042961314623e+01 0 0 0
1220 1 1.2614692450976445e+01 -1.2184018896845171e+01 -1.6964378639416591e+01 0 0 0
1309 1 -1.7022772115872559e+01 -7.6042480148532920e+00 -1.7473627947317990e+01 0 0 0
2725 1 -1.5365898946860758e+01 -6.2867758553883464e+00 -1.8841253326710287e+01 0 0 0
3316 2 -1.4205530426613471e+01 -8.5074373920222541e+00 -1.9144402869545839e+01 0 0 0
1706 1 -1.4667088815600394e+01 -8.0295260116097289e+00 -1.6734309049010879e+01 0 0 0
352 1 -1.1747748939085046e+01 -8.8273557777938283e+00 -1.8615954626744486e+01 0 0 0
1775 1 -1.2954943715049717e+01 -6.6746340129688377e+00 -1.8019618978182287e+01 0 0 0
981 1 -1.0399740154198566e+01 -7.1979834721972047e+00 -1.7442545180325467e+01 0 0 0
4176 2 -9.7517067241557598e+00 -7.6885446321030795e+00 -1.9859919544314888e+01 0 0 0
4212 2 -6.7649325886006260e+00 -9.8327347052988703e+00 -1.7358337046245868e+01 0 0 0
5143 2 -9.1596793114207280e+00 -9.5174506513043600e+00 -1.8158417270399102e+01 0 0 0
4042 2 -7.2039320650267609e+00 -8.2492816474565416e+00 -1.9390778685382507e+01 0 0 0
433 1 -6.0254190687805984e+00 -6.3492598548100343e+00 -1.7966211624556166e+01 0 0 0
4846 2 -7.9538174004764768e+00 -7.6753913636108413e+00 -1.6783541593497912e+01 0 0 0
1396 1 -8.4461162373514558e+00 -6.0012708308738478e+00 -1.8604828554582788e+01 0 0 0
2291 1 -5.2474587807122717e+00 -6.7504071566462818e+00 -2.0370999248615842e+01 0 0 0
4257 2 -2.9084688674920662e+00 -7.2178431875028402e+00 -1.9738751778755564e+01 0 0 0
1369 1 -4.9535332966782502e+00 -8.5885159729470981e+00 -1.8529469147570584e+01 0 0 0
4860 2 -3.6511174995524174e+00 -6.5992995223319992e+00 -1.7400226011436256e+01 0 0 0
3648 2 -2.3658262655203051e+00 -8.8931851475202421e+00 -1.7862826267345408e+01 0 0 0
2280 1 1.3097770021080035e+00 -6.3024956409803776e+00 -2.0167658445349261e+01 0 0 0
3467 2 -1.7583885456618962e+00 -9.4513046720257687e+00 -2.0366552972524964e+01 0 0 0
4423 2 -5.0934356315041240e-01 -7.5821398533835662e+00 -1.9084407935697712e+01 0 0 0
3756 2 1.2884789982809403e-01 -9.3232940634513675e+00 -1.7281891020365617e+01 0 0 0
2509 1 -1.1109194122312103e+00 -7.0006543714137059e+00 -1.6720532690177027e+01 0 0 0
1520 1 1.9468540281946507e+00 -7.8870346618578280e+00 -1.8237315259518063e+01 0 0 0
5084 2 3.7926596605814065e+00 -6.6213969362830598e+00 -1.9444510667038653e+01 0 0 0
4064 2 4.4000604085688373e+00 -8.1810487063323158e+00 -1.7701431739217234e+01 0 0 0
5391 2 4.9027415212957033e+00 -8.7208119579243171e+00 -2.0100287018594813e+01 0 0 0
388 1 3.1778526875381217e+00 -5.9546538268246358e+00 -1.7178467727489465e+01 0 0 0
401 1 6.6248654903239172e+00 -9.2674319684123088e+00 -1.8092660948489886e+01 0 0 0
4260 2 8.5007892293586682e+00 -7.9601027087899743e+00 -1.9287028269343327e+01 0 0 0
3623 2 6.2257463404200664e+00 -6.8574450025626392e+00 -1.8836073153336272e+01 0 0 0
544 1 7.9953939850021429e+00 -7.6138282378014166e+00 -1.6855093671650899e+01 0 0 0
3437 2 1.0347775997431068e+01 -6.6629828936069639e+00 -2.0416609388610944e+01 0 0 0
1051 1 9.6353973141163696e+00 -6.0515579197014091e+00 -1.8088202022145648e+01 0 0 0
5463 2 1.0791752471185788e+01 -9.2458478192052862e+00 -1.9771857838965136e+01 0 0 0
33 1 1.1802878290983516e+01 -7.3227087140051266e+00 -1.8460172981508901e+01 0 0 0
3647 2 1.0044715875968475e+01 -8.6408340697475037e+00 -1.7421833659951663e+01 0 0 0
2910 2 1.3862553907647145e+01 -8.5238095150577902e+00 -1.8881943457611435e+01 0 0 0
2932 2 1.5181501971793578e+01 -6.6162787995357437e+00 -1.7569238961672664e+01 0 0 0
3809 2 1.3557289408220587e+01 -6.1734773161091772e+00 -1.9683215310985418e+01 0 0 0
5378 2 1.5570571745007300e+01 -9.1070686528212406e+00 -1.7036380321870130e+01 0 0 0
1761 1 -1.8315767686206726e+01 -5.5330110172158875e+00 -1.6979078570631273e+01 0 0 0
5417 2 -1.7599972876996983e+01 -1.9310130089662574e+00 -1.7425592639148157e+01 0 0 0
90 1 -1.6393887357805369e+01 -4.0648105956343850e+00 -1.8135756763870685e+01 0 0 0
3562 2 -1.4690078067512319e+01 -2.7916819161534865e+00 -1.9471148824532303e+01 0 0 0
3196 2 -1.5172945555896845e+01 -2.4304155772429281e+00 -1.6994323630077165e+01 0 0 0
4863 2 -1.3988125504267220e+01 -4.5991104518547514e+00 -1.7526431146443244e+01 0 0 0
2508 1 -1.3380082261456877e+01 -5.0773126943562854e+00 -1.9972875032384600e+01 0 0 0
3379 2 -1.1160978138197386e+01 -5.5158024795118150e+00 -1.9343454297652883e+01 0 0 0
1446 1 -1.2184647760138592e+01 -3.2992553887873552e+00 -1.8641306013950576e+01 0 0 0
1451 1 -1.1645973523363477e+01 -5.0115234720335664e+00 -1.6852340218090568e+01 0 0 0
2995 2 -9.1152258850565371e+00 -4.3311411563530715e+00 -2.0418105096004023e+01 0 0 0
3134 2 -9.6808312820689277e+00 -3.6872419052758545e+00 -1.8052481395100568e+01 0 0 0
182 1 -6.5667728071550666e+00 -4.5840852239875307e+00 -1.9704799755458037e+01 0 0 0
682 1 -7.7873910410127785e+00 -2.4752597901761195e+00 -1.9238681778314245e+01 0 0 0
2267 1 -7.3426022732306757e+00 -4.0120739093470315e+00 -1.7352094062505426e+01 0 0 0
498 1 -4.0336826533863652e+00 -4.9407795008905895e+00 -1.9132857633261455e+01 0 0 0
417 1 -5.3683840150165576e+00 -2.7519398903049943e+00 -1.8491913730212577e+01 0 0 0
3074 2 -2.9385940277317966e+00 -3.0792129892578513e+00 -1.7967037201462510e+01 0 0 0
1578 1 -2.4077819437994936e+00 -3.7382716852711857e+00 -2.0456655695232421e+01 0 0 0
4254 2 8.1847946511302827e-01 -5.7203346432083579e+00 -1.7858617572155143e+01 0 0 0
4374 2 -1.6227703803351050e+00 -5.3884323091129245e+00 -1.8535426325120614e+01 0 0 0
455 1 2.1413478083404058e-01 -4.1504394282950621e+00 -1.9776257570586079e+01 0 0 0
2306 1 -3.6951314445083761e-01 -3.5024979726251644e+00 -1.7270803474933807e+01 0 0 0
2344 1 1.3430178030760320e+00 -2.1805720869191934e+00 -1.8442504622214038e+01 0 0 0
65 1 4.4377290055042371e+00 -3.0298078451788530e+00 -2.0253733366984342e+01 0 0 0
2512 1 2.5242684324740852e+00 -4.3978018053795056e+00 -1.9029647679553040e+01 0 0 0
4550 2 3.8500257079564588e+00 -2.5091116024553504e+00 -1.7784895605120280e+01 0 0 0
5060 2 4.9552377887287129e+00 -4.6688887283415932e+00 -1.8458999169566926e+01 0 0 0
422 1 8.1579661783798620e+00 -5.5670024617402056e+00 -2.0023537566993415e+01 0 0 0
1599 1 6.8374514615900663e+00 -3.4400396634827257e+00 -1.9659127291442928e+01 0 0 0
3419 2 7.3913757055427434e+00 -5.0568692876538099e+00 -1.7714398080341702e+01 0 0 0
1835 1 6.2519444919536449e+00 -2.8659273896692063e+00 -1.7122948161393190e+01 0 0 0
1666 1 9.3272693392141353e+00 -3.5536981053194525e+00 -1.8847274324003720e+01 0 0 0
1724 1 1.1261720328574313e+01 -2.5096300639418665e+00 -1.9965677660354604e+01 0 0 0
3 1 1.1559432589696506e+01 -4.8742546753321605e+00 -1.9155890324061115e+01 0 0 0
1495 1 1.2783442246720256e+01 -3.0228889724484680e+00 -1.8046789585146055e+01 0 0 0
1673 1 1.0613541094914209e+01 -1.8412822561277753e+00 -1.7570121032320650e+01 0 0 0
3466 2 1.0839493071440844e+01 -4.1778879380022129e+00 -1.6678375597835352e+01 0 0 0
3234 2 1.3029846800023966e+01 -5.4399828159273413e+00 -1.7189938120958594e+01 0 0 0
378 1 1.3320522815646305e+01 -3.7586081545159051e+00 -2.0432248129508494e+01 0 0 0
832 1 1.5060848424330500e+01 -4.2996149672235369e+00 -1.8394719305564603e+01 0 0 0
84 1 1.6618254078121517e+01 -2.5031783193683377e+00 -1.7307776260003461e+01 0 0 0
2175 1 -1.5750135658274111e+01 -7.9570959073206082e-01 -1.8554792260121957e+01 0 0 0
1445 1 -1.0167737422502196e+01 -2.0236662820000575e+00 -1.9850536624396135e+01 0 0 0
4720 2 -1.3245725651269769e+01 -1.1043327842668611e+00 -1.7929536580732830e+01 0 0 0
4465 2 -1.0825359240493134e+01 -1.4836624285185229e+00 -1.7411012997702176e+01 0 0 0
3330 2 -6.5194304395395921e+00 -4.0700567748887545e-01 -1.8245176657666825e+01 0 0 0
707 1 1.8748782583664362e+01 -6.0230545478093269e+00 -1.2413191741565424e-01 0 0 0
1740 1 -5.8482935928814452e+00 -1.0456105849792550e+00 -2.0483624585644993e+01 0 0 0
3158 2 -3.5317482656563666e+00 -1.5583263995125811e+00 -1.9748081575439617e+01 0 0 0
477 1 -4.1390238177565957e+00 -9.0145691701108355e-01 -1.7376529580738335e+01 0 0 0
2388 1 -1.2097769954342146e+00 -1.9355953531484666e+00 -1.9013092687266667e+01 0 0 0
1416 1 8.4285040104946474e-01 -5.9814665592758687e-01 -2.0347800561508731e+01 0 0 0
2504 1 3.2368512382696299e+00 -9.6092351186629432e-01 -1.9651687727232943e+01 0 0 0
3303 2 2.5601668653422167e+00 -3.0366047388987000e-01 -1.7151475458218489e+01 0 0 0
1270 1 5.6556238084704864e+00 -1.2558296588352802e+00 -1.8825651935918977e+01 0 0 0
2011 1 8.1364172163862829e+00 -1.4570406333456067e+00 -1.8379369172283504e+01 0 0 0
165 1 2.2405760232514218e+01 -1.4961586951987511e+00 -8.6099929692300659e-01 0 0 0
1185 1 1.2529024275704053e+01 -7.4069195489462691e-01 -1.8672450515391535e+01 0 0 0
4313 2 9.9996318804103836e+00 -2.8606597504464770e-01 -1.9442384680805940e+01 0 0 0
1854 1 1.4699696367697326e+01 -1.9333351594747947e+00 -1.9156787004081803e+01 0 0 0
4589 2 1.4407807720524428e+01 -1.2754634328443897e+00 -1.6854608949484202e+01 0 0 0
489 1 2.2716640463593439e+01 -3.8129096167447996e+00 5.4723666934046239e-03 0 0 0
2950 2 1.2381179730847214e+00 -2.2436561483267266e+01 -1.3174761725467439e+01 0 0 0
2032 1 -3.1044560703294577e+00 -1.8187261508999988e+01 -1.5816268321293554e+01 0 0 0
4208 2 -1.1217368923534303e+00 -2.1251550317317907e+01 -1.2953399858938528e+01 0 0 0
2972 2 -1.5754116384725922e+00 -1.8953519530620948e+01 -1.3898466676842231e+01 0 0 0
229 1 5.1716137161062770e-01 -2.0170971948097559e+01 -1.4368675374314192e+01 0 0 0
1100 1 1.7397123638596865e+00 -1.8130168529256267e+01 -1.3027741208212030e+01 0 0 0
3588 2 2.4381894202996328e+00 -1.8875260361372909e+01 -1.5449927628867284e+01 0 0 0
464 1 3.9349910455073096e+00 -1.9160423547477620e+01 -1.3451904253851701e+01 0 0 0
295 1 5.8564323863683834e+00 -1.7886214208181556e+01 -1.4929954410863749e+01 0 0 0
2251 1 -1.6698505166815956e+01 -1.4644313512139863e+01 -1.3199689027004126e+01 0 0 0
778 1 -1.0920707971989911e+01 -1.6018054329833916e+01 -1.4401811126126187e+01 0 0 0
4995 2 -1.1429677137716773e+01 -1.4280121895594535e+01 -1.6166389773176999e+01 0 0 0
4496 2 -9.7480652139428319e+00 -1.4074094402969225e+01 -1.3146756074813940e+01 0 0 0
355 1 -1.2829276612564303e+01 -1.7352680748638580e+01 -1.2916441781692415e+01 0 0 0
1762 1 -9.1511665347356175e+00 -1.4676849901646676e+01 -1.5548343475485103e+01 0 0 0
4867 2 -6.7005547127074649e+00 -1.5070439610106803e+01 -1.4704336474349269e+01 0 0 0
3182 2 -8.6067331198024792e+00 -1.6412437404464605e+01 -1.3676604539049075e+01 0 0 0
91 1 -3.9688744611809339e+00 -1.7906921366624836e+01 -1.3381704190682223e+01 0 0 0
1923 1 -3.6493890765591601e+00 -1.5909927817170930e+01 -1.6587221827105264e+01 0 0 0
1191 1 -5.4507243550190196e+00 -1.7378669000000727e+01 -1.5296029664503950e+01 0 0 0
3117 2 -4.2608591168288967e+00 -1.5460755396737381e+01 -1.4240842055651251e+01 0 0 0
1425 1 -2.4627687476631457e+00 -1.4066264785039584e+01 -1.5372928225826433e+01 0 0 0
4686 2 -2.0155846711247190e+00 -1.6421697055717821e+01 -1.4565088744753654e+01 0 0 0
2653 1 1.6035965008119371e-01 -1.7627283182017219e+01 -1.5171473751139731e+01 0 0 0
3847 2 -1.8758793439061697e-01 -1.5120091374407712e+01 -1.5741399116568848e+01 0 0 0
4232 2 -8.8713724733387567e-01 -1.4531651350120445e+01 -1.3423156828720318e+01 0 0 0
2369 1 1.3130423820360970e+00 -1.5645362180649148e+01 -1.3886516167935254e+01 0 0 0
4682 2 4.1349911178593306e+00 -1.7313052565345519e+01 -1.6597631693702041e+01 0 0 0
4607 2 1.8933363185309477e+00 -1.6326480341289791e+01 -1.6312390876570976e+01 0 0 0
913 1 3.5772292290586383e+00 -1.6679833403258161e+01 -1.4291576325819447e+01 0 0 0
4999 2 3.2387794747004630e+00 -1.4485646205489974e+01 -1.5127819770695041e+01 0 0 0
2902 2 4.7574373827516743e+00 -1.4949382726450814e+01 -1.2939428663095455e+01 0 0 0
4561 2 5.3498130321533228e+00 -1.5515941637754409e+01 -1.5406242078903803e+01 0 0 0
4790 2 7.1156973577726070e+00 -1.4171132599054346e+01 -1.6639629527480459e+01 0 0 0
3663 2 7.6320946414891964e+00 -1.6446489105957959e+01 -1.5830698054371080e+01 0 0 0
3067 2 8.9034461102728581e+00 -1.4668388282179146e+01 -1.4582643910148137e+01 0 0 0
319 1 6.9687860559617159e+00 -1.6018614384692867e+01 -1.3530422554907899e+01 0 0 0
4474 2 9.2208359545154526e+00 -1.7076875604099257e+01 -1.4014112619418905e+01 0 0 0
3935 2 1.1057057314600620e+01 -1.5835760304537926e+01 -1.5159291523887939e+01 0 0 0
2963 2 1.2301222370242000e+01 -1.4194590421263287e+01 -1.3839794897035571e+01 0 0 0
5007 2 -1.8202494222883367e+01 -1.0726449177536480e+01 -1.4412359225257859e+01 0 0 0
4090 2 -1.7131935279240089e+01 -1.2980348164294854e+01 -1.4961720640605146e+01 0 0 0
4031 2 -1.4716144446220781e+01 -1.3383565462884178e+01 -1.4507683694084736e+01 0 0 0
2782 1 -1.5487844986049407e+01 -1.1685438553067197e+01 -1.6244402948433070e+01 0 0 0
904 1 -1.5818130376706598e+01 -1.1193683282682695e+01 -1.3805439482107763e+01 0 0 0
2477 1 -1.3377447939821007e+01 -1.1568931539836774e+01 -1.3233061765502832e+01 0 0 0
3816 2 -1.2244131179056044e+01 -1.3873308693148548e+01 -1.3976279314897846e+01 0 0 0
3115 2 -1.2961706353592673e+01 -1.2235275811620207e+01 -1.5824832595483640e+01 0 0 0
1196 1 -1.0357966095179322e+01 -1.2344313831145843e+01 -1.5171004997126353e+01 0 0 0
20 1 -1.1774508270141585e+01 -1.0271491570252023e+01 -1.4504482633752128e+01 0 0 0
593 1 -7.3401901936850411e+00 -1.3366364852049612e+01 -1.6635291401891070e+01 0 0 0
285 1 -9.1942468984567380e+00 -1.0689985100451572e+01 -1.3821901571527688e+01 0 0 0
142 1 -8.6181983769675430e+00 -1.1064509168018668e+01 -1.6242083780733122e+01 0 0 0
2348 1 -8.0575799601019416e+00 -1.2877521128518616e+01 -1.4337750439853560e+01 0 0 0
2494 1 -6.8462975043987804e+00 -1.0836131009984223e+01 -1.3140657748755201e+01 0 0 0
80 1 -6.2062249298220316e+00 -1.1542508268112707e+01 -1.5443242350438231e+01 0 0 0
283 1 -4.8881308152676857e+00 -1.3823859627060088e+01 -1.6039605783896992e+01 0 0 0
2375 1 -5.5075180894533293e+00 -1.3060162033073105e+01 -1.3624060922798259e+01 0 0 0
671 1 -3.7353211412642850e+00 -1.1928808228333029e+01 -1.4967474301312874e+01 0 0 0
1941 1 -2.5632628533609259e+00 -9.8840086465893950e+00 -1.3602352296564195e+01 0 0 0
2819 1 -3.2474417353572744e+00 -1.3596233448482346e+01 -1.2994490995295671e+01 0 0 0
4536 2 -5.2483163961564272e-01 -1.2721717658497719e+01 -1.6516981313120411e+01 0 0 0
598 1 -1.8605465399234273e+00 -1.0471883995234418e+01 -1.5982179732385266e+01 0 0 0
1823 1 9.9360503129075373e-01 -1.3251023101982371e+01 -1.4421063990751932e+01 0 0 0
64 1 -1.2828041409916358e+00 -1.2174972639805949e+01 -1.4102771535788397e+01 0 0 0
1816 1 5.0875454047836977e-01 -1.0819323173350082e+01 -1.5387018608810592e+01 0 0 0
2169 1 -1.3576905668345951e-01 -1.0337468914038865e+01 -1.2705577754441469e+01 0 0 0
1836 1 2.7514137401074272e+00 -1.1937439317292945e+01 -1.5764703618671431e+01 0 0 0
325 1 4.3940942520243524e+00 -1.2578966101792791e+01 -1.3839468693608204e+01 0 0 0
363 1 4.8700643231052965e+00 -1.3079562552801324e+01 -1.6333368458271785e+01 0 0 0
3837 2 2.1013000417551950e+00 -1.1352505467045553e+01 -1.3276775815794819e+01 0 0 0
3528 2 4.1012144303681524e+00 -1.0099187688743712e+01 -1.4507368321457756e+01 0 0 0
1608 1 6.7285327929045842e+00 -1.3586203159740121e+01 -1.4119661261881781e+01 0 0 0
1505 1 8.5500894512067429e+00 -1.2412877101704654e+01 -1.5400526234781323e+01 0 0 0
1423 1 6.3097524869172767e+00 -1.1270931063477876e+01 -1.4872360269642227e+01 0 0 0
1595 1 8.2151129478938838e+00 -1.0035550677275909e+01 -1.6056418411804341e+01 0 0 0
4373 2 7.8666286432774353e+00 -1.1869328243467102e+01 -1.2868879470672610e+01 0 0 0
3252 2 1.0817628933716330e+01 -1.3520054001811225e+01 -1.5733043710796643e+01 0 0 0
3235 2 1.0488980315792693e+01 -1.1123605307658577e+01 -1.6601782490513880e+01 0 0 0
4402 2 1.1956758485736096e+01 -1.1625540697599721e+01 -1.4599337871925766e+01 0 0 0
4834 2 9.7058978629953714e+00 -1.0580974525138775e+01 -1.4168816651732003e+01 0 0 0
5471 2 1.0124081625498789e+01 -1.2932821750472984e+01 -1.3393096059509096e+01 0 0 0
3275 2 1.4027809408452109e+01 -1.2771032101963918e+01 -1.4927644855729934e+01 0 0 0
3246 2 1.5210055349032963e+01 -1.0824815135707533e+01 -1.3742671544235552e+01 0 0 0
1605 1 1.3868696802253025e+01 -1.0416812877258861e+01 -1.5818111783804076e+01 0 0 0
146 1 1.5497411780195273e+01 -1.3198848034003325e+01 -1.2820676564413731e+01 0 0 0
3986 2 -1.9515948479941702e+01 -8.3735410260961860e+00 -1.3868689427947402e+01 0 0 0
5372 2 -1.7731594199622446e+01 -7.1512125473118084e+00 -1.5158629062919006e+01 0 0 0
3381 2 -2.0587193928807054e+01 -6.1464567736984268e+00 -1.3250856568810070e+01 0 0 0
448 1 -1.4169004391486634e+01 -9.8575136459419603e+00 -1.5074401105652200e+01 0 0 0
1766 1 -1.7043841389962608e+01 -8.9847660432099161e+00 -1.3208520834695520e+01 0 0 0
1984 1 -1.6544681628671235e+01 -9.3459194691113421e+00 -1.5616734653240059e+01 0 0 0
5066 2 -1.5375732492982053e+01 -7.5494735308716914e+00 -1.4426269310361109e+01 0 0 0
96 1 -1.3367484307896204e+01 -6.3163659238266288e+00 -1.5619024063825053e+01 0 0 0
3142 2 -1.2282384550434482e+01 -8.5367262202057930e+00 -1.6237487407705849e+01 0 0 0
5342 2 -1.2963766214587839e+01 -7.9932142226827541e+00 -1.3853662308019926e+01 0 0 0
3432 2 -1.0880671257801897e+01 -6.7076688180532837e+00 -1.5137016653305583e+01 0 0 0
839 1 -1.0583582630042720e+01 -8.5115398250954808e+00 -1.3186324049247720e+01 0 0 0
656 1 -9.8033602257346679e+00 -8.9060539942798247e+00 -1.5579649772807853e+01 0 0 0
1085 1 -7.3601707107916319e+00 -9.2626397739748949e+00 -1.4981530502186159e+01 0 0 0
3997 2 -8.5791370662981983e+00 -7.0557056575157997e+00 -1.4338547194517384e+01 0 0 0
2805 1 -6.1678561077456759e+00 -7.3850021703664650e+00 -1.3685759132941067e+01 0 0 0
69 1 -4.9844127144988049e+00 -9.5918937270640434e+00 -1.4420708995785708e+01 0 0 0
713 1 -5.4549408776169415e+00 -7.9358056441388252e+00 -1.6186107819969848e+01 0 0 0
2571 1 -2.9850973357000443e+00 -8.2244949190094836e+00 -1.5503348458098008e+01 0 0 0
1563 1 -4.2644162537172861e+00 -6.1311656805321135e+00 -1.4931236403822085e+01 0 0 0
3429 2 -3.7119739345478715e+00 -7.7433614435673981e+00 -1.3049834273360810e+01 0 0 0
4088 2 -1.8682707258968339e+00 -6.4730829517719233e+00 -1.4222067903488117e+01 0 0 0
1580 1 -6.6389270344230200e-01 -8.5831722284324208e+00 -1.4818307530299062e+01 0 0 0
147 1 5.1598843520236137e-01 -6.6970566182473199e+00 -1.3595060584534028e+01 0 0 0
144 1 1.2174588864388229e+00 -7.4288139415475181e+00 -1.5958604120424585e+01 0 0 0
627 1 2.4691134077133770e+00 -9.5243683060502775e+00 -1.6502497821732550e+01 0 0 0
1512 1 1.8107466969311246e+00 -9.0340995486831073e+00 -1.4065918293087305e+01 0 0 0
135 1 3.8243352236467816e+00 -7.6200285281254709e+00 -1.5307494655317401e+01 0 0 0
1548 1 5.3825478157499882e+00 -8.3307902972152856e+00 -1.3308264313262814e+01 0 0 0
1620 1 5.7086831214715072e+00 -6.5074398902698816e+00 -1.6477298715061714e+01 0 0 0
4626 2 3.0798527278583006e+00 -7.2083138190779072e+00 -1.2949137700847016e+01 0 0 0
4252 2 7.5347132424257950e+00 -9.4160530711420201e+00 -1.3663049140776646e+01 0 0 0
638 1 5.9656132535540127e+00 -8.8422109298234624e+00 -1.5673773304455741e+01 0 0 0
5347 2 7.2630338604627411e+00 -7.0514647464331883e+00 -1.4511336016399602e+01 0 0 0
2920 2 9.4643762622873950e+00 -8.1337844736684346e+00 -1.4842711802536920e+01 0 0 0
4929 2 1.1619912945821360e+01 -9.2494012967507100e+00 -1.5391724573823419e+01 0 0 0
331 1 1.1123440757529886e+01 -6.8018520910376052e+00 -1.6027455050390209e+01 0 0 0
888 1 1.0575787029017427e+01 -6.2422185602678937e+00 -1.3599111602223868e+01 0 0 0
4568 2 1.2761401517238646e+01 -7.2429717640017630e+00 -1.4175741945431842e+01 0 0 0
4385 2 1.0862239569809422e+01 -8.7622191247538890e+00 -1.2897547894072437e+01 0 0 0
4226 2 1.3104673571940406e+01 -9.7171042779392600e+00 -1.3342875985826717e+01 0 0 0
156 1 1.3408775106026511e+01 -7.9829876176255006e+00 -1.6487194010017447e+01 0 0 0
1616 1 1.4816415918472060e+01 -8.4033121546069385e+00 -1.4514534115891585e+01 0 0 0
138 1 1.6119557305846403e+01 -6.4935605875667637e+00 -1.3343944549707984e+01 0 0 0
1547 1 1.4783800499808441e+01 -5.9984549516309444e+00 -1.5280679086401253e+01 0 0 0
2565 1 1.6798841009408321e+01 -7.3135344242103351e+00 -1.5799931268202799e+01 0 0 0
1257 1 1.6870061410916026e+01 -9.7253516579663799e+00 -1.5024435833410186e+01 0 0 0
2213 1 1.8400718770280864e+01 -7.9043035035482321e+00 -1.3816957446172900e+01 0 0 0
5104 2 -1.9392624999815560e+01 -3.2483589849513952e+00 -1.6317384654367622e+01 0 0 0
1197 1 -1.8784039278893783e+01 -4.9234074147733811e+00 -1.4482569348333023e+01 0 0 0
179 1 -2.0003877725992250e+01 -2.6797249304471800e+00 -1.3945713085816095e+01 0 0 0
1391 1 -1.7544445463712787e+01 -3.0813807701683320e+00 -1.3408128748411688e+01 0 0 0