LAMMPS data file via write_data, version 12 Dec 2018, timestep = 2410000

5473 atoms
2 atom types

-2.4567901594955767e+01 2.4370952516248490e+01 xlo xhi
-2.3990638953942511e+01 2.4391153643625884e+01 ylo yhi
-2.6123382032302111e+01 2.3874931004681677e+01 zlo zhi

Masses

1 63.5
2 63.5

Atoms # atomic

3910 2 -4.3539455157135754e-01 -9.2257527466486913e+00 -2.2891820955434312e+01 0 0 0
3332 2 5.0436391827684854e+00 -8.1845086103286295e+00 -2.2956029280291226e+01 0 0 0
5138 2 -4.2579224174116339e+00 -5.6793850221460147e+00 -2.2953975108749287e+01 0 0 0
455 1 -2.5793892224009851e+00 -7.4863758934820321e+00 -2.2848033451438337e+01 0 0 0
4788 2 -1.9578332641521123e+00 -5.1967820294373501e+00 -2.3952139117743510e+01 0 0 0
4800 2 -2.6658659283947211e-01 -6.9764381678976743e+00 -2.4095669920387767e+01 0 0 0
1487 1 1.7732195777514045e-01 -4.6268235273952003e+00 -2.5502540990082025e+01 0 0 0
872 1 -7.3230033962329744e-02 -5.3530404524283348e+00 -2.2332933883959999e+01 0 0 0
1545 1 1.6295961173899043e+00 -7.5013070312838765e+00 -2.2444446290089438e+01 0 0 0
745 1 1.9158233130642246e+00 -5.3368023436644361e+00 -2.3874743639748814e+01 0 0 0
3329 2 4.0706327111783960e+00 -5.8679385886497402e+00 -2.2665243667414469e+01 0 0 0
2902 2 4.6288155676832377e+00 -3.7034007534580651e+00 -2.3951434649019717e+01 0 0 0
4327 2 5.9342288368729594e+00 -6.0738660689408182e+00 -2.4180944463584776e+01 0 0 0
3376 2 7.8079923261270210e+00 -7.3258315333523489e+00 -2.2699502299039196e+01 0 0 0
3135 2 8.4392497233835879e+00 -5.2837268515982903e+00 -2.4144979232929792e+01 0 0 0
3566 2 1.0296047424657724e+01 -5.8651884212219869e+00 -2.2747389494426699e+01 0 0 0
4292 2 1.0604055271624823e+01 -3.9445116241495519e+00 -2.4167447816647876e+01 0 0 0
4575 2 -3.5330125571971185e+00 -3.1718320237079332e+00 -2.3139493441645801e+01 0 0 0
3047 2 -3.5593943726407109e+00 -9.9011476818455812e-01 -2.4237247141906177e+01 0 0 0
223 1 -5.3230342611523369e+00 -1.2767821235845143e+00 -2.2426200648660895e+01 0 0 0
4203 2 -1.7314872471681912e+00 -2.8294509588531431e+00 -2.4775579748596023e+01 0 0 0
2726 1 -1.2558247726552225e+00 -1.1028735478588598e+00 -2.3109307944707385e+01 0 0 0
4272 2 4.1199621283764193e-01 -3.0205371590149412e+00 -2.3610640742838289e+01 0 0 0
4542 2 7.2217011222905503e-01 -1.0293467851343201e+00 -2.4893727715640079e+01 0 0 0
1207 1 2.3213602471457015e+00 -3.1759949841126249e+00 -2.5218110596959452e+01 0 0 0
3692 2 2.5893863984095034e+00 -3.4082426161346682e+00 -2.2520655358601218e+01 0 0 0
4003 2 3.0534166604975703e+00 -1.3457317317182831e+00 -2.3820183084044473e+01 0 0 0
4262 2 4.5928553342629836e+00 -1.6469104691090002e+00 -2.5572099657810970e+01 0 0 0
5077 2 5.3917568007057577e+00 -1.4717457862151988e+00 -2.3135540607689659e+01 0 0 0
1562 1 7.0510955675104308e+00 -3.3902950694194165e+00 -2.3481790616794271e+01 0 0 0
728 1 7.1851460643027849e+00 -1.4804093671907030e+00 -2.4822439306573827e+01 0 0 0
2973 2 9.1397476475289512e+00 -3.6547757641501688e+00 -2.2232125147524787e+01 0 0 0
3102 2 7.7381562415577791e+00 -1.4022259023497881e+00 -2.2184642170017622e+01 0 0 0
4501 2 9.5638599957722104e+00 -1.7256255025259526e+00 -2.3802732139435044e+01 0 0 0
2915 2 1.2002583142831538e+01 -1.7118762699682049e+00 -2.3089701094145070e+01 0 0 0
3100 2 -7.7400251965399871e+00 -1.2629790216479311e+01 -1.8618474971374592e+01 0 0 0
1130 1 -5.2617555766303434e+00 -1.2005454304332766e+01 -1.9455005981597445e+01 0 0 0
1921 1 -3.5401354240940277e+00 -1.3863080540630255e+01 -1.9232817949599813e+01 0 0 0
159 1 -1.1734534522284217e+00 -1.3750596002961245e+01 -2.0005114225470333e+01 0 0 0
1589 1 3.2271489221097256e+00 -1.4004922649914205e+01 -1.8863733695208325e+01 0 0 0
3112 2 4.2120762906990628e+00 -1.1952663213527163e+01 -2.0074276195383696e+01 0 0 0
691 1 5.7446528056320156e+00 -1.3948270018265623e+01 -1.9635435022637591e+01 0 0 0
3523 2 8.6174646912892783e+00 -1.2166643833613223e+01 -1.8576644936868750e+01 0 0 0
5043 2 -1.3799519078597024e+01 -7.4970584917588861e+00 -1.9272534591873924e+01 0 0 0
105 1 -9.7597034080286971e+00 -1.0928600822267565e+01 -1.8777350912579326e+01 0 0 0
1572 1 -1.1923958887219804e+01 -9.1820961302123116e+00 -1.9124442401459824e+01 0 0 0
1478 1 -9.7071244383578907e+00 -8.7174474909569764e+00 -1.9989057747032454e+01 0 0 0
53 1 -7.6530428407482791e+00 -1.0510956977119253e+01 -1.9735260110138011e+01 0 0 0
4518 2 -7.2136651243078740e+00 -8.4086054780502870e+00 -2.1094555017220134e+01 0 0 0
612 1 -7.6556846804289620e+00 -8.3430546175225988e+00 -1.8543304946020605e+01 0 0 0
4430 2 -2.7536863953241610e+00 -1.1831535302099409e+01 -2.0390002969767163e+01 0 0 0
1844 1 -5.2529518106184954e+00 -1.0188546595207939e+01 -2.1027430144944265e+01 0 0 0
5117 2 -3.0848720238043486e+00 -9.7172664486303404e+00 -2.2010829552703544e+01 0 0 0
857 1 -3.5954056646877244e+00 -9.6661479646678430e+00 -1.9375728788885095e+01 0 0 0
445 1 -5.3392440801696690e+00 -7.8270392269028548e+00 -1.9576776073328816e+01 0 0 0
1076 1 -4.9132943236531962e-01 -1.1747752562633961e+01 -2.1165144671836654e+01 0 0 0
3976 2 1.6403118458807955e+00 -1.2055969180950132e+01 -1.9695469178932441e+01 0 0 0
91 1 -1.2508811799096162e+00 -9.7510867663306549e+00 -2.0267448061198095e+01 0 0 0
3730 2 -8.7781721435002891e-01 -1.1565875771805135e+01 -1.8754779603142683e+01 0 0 0
2772 1 1.1742310208403570e+00 -9.7234461019641927e+00 -2.1081893776467322e+01 0 0 0
936 1 5.9742502181816159e-01 -9.7883393001665731e+00 -1.8620086840840582e+01 0 0 0
1031 1 2.8566769124729583e+00 -9.8155847135964418e+00 -1.9419223490186024e+01 0 0 0
4765 2 3.7085462926794492e+00 -1.0128463884026267e+01 -2.1868488877571490e+01 0 0 0
1451 1 5.3386535723307880e+00 -9.7405047385560142e+00 -2.0084540513645571e+01 0 0 0
2373 1 3.6333427559742182e+00 -7.7529279126121482e+00 -2.0800639733630714e+01 0 0 0
300 1 7.0218523403475110e+00 -1.1554536187200224e+01 -2.0278140257664408e+01 0 0 0
4659 2 7.2470803021028756e+00 -9.3636890728714128e+00 -2.1584277759167041e+01 0 0 0
3482 2 7.4824868467702812e+00 -9.8344748751831315e+00 -1.8443570990616969e+01 0 0 0
5411 2 8.1798518180005413e+00 -7.8385182627315571e+00 -1.9804082082411096e+01 0 0 0
1210 1 9.1687539799038369e+00 -1.0120176233812526e+01 -2.0169761787687428e+01 0 0 0
1472 1 1.1614145926060072e+01 -9.9036844537171778e+00 -1.9384906403564617e+01 0 0 0
1497 1 1.0229840022953528e+01 -8.0071817788797315e+00 -1.8791450597168613e+01 0 0 0
545 1 9.8767319565636971e+00 -8.0538022641515425e+00 -2.1350608016201200e+01 0 0 0
2791 1 1.4161236908031238e+01 -9.9492228366058431e+00 -1.8403530463340598e+01 0 0 0
1323 1 -1.2627124864451588e+01 -5.2679056509403868e+00 -1.9109471991187416e+01 0 0 0
532 1 -1.1474028475729526e+01 -7.0219204106385753e+00 -2.0419065792899513e+01 0 0 0
1528 1 -1.0431695926754919e+01 -4.6313260619200136e+00 -2.0386337404826094e+01 0 0 0
1403 1 -6.6586099000759233e+00 -6.1193821924866585e+00 -2.2242116465468186e+01 0 0 0
225 1 -9.5427243772211270e+00 -6.4817646029042635e+00 -1.8917127435555923e+01 0 0 0
4510 2 -8.9655024788867905e+00 -6.5391756650676465e+00 -2.1351014597480699e+01 0 0 0
2431 1 -8.3365415943341645e+00 -4.0631064125577350e+00 -1.8598433110986790e+01 0 0 0
4315 2 -7.1592104506892413e+00 -6.1112381177280799e+00 -1.9867031579454373e+01 0 0 0
3070 2 -8.1699559275661571e+00 -4.2147178606366005e+00 -2.1162990604698827e+01 0 0 0
1924 1 -4.9822653946208080e+00 -7.9141559919347859e+00 -2.2074802921376843e+01 0 0 0
2518 1 -2.9690943357895057e+00 -7.5567180924231030e+00 -2.0349938718791627e+01 0 0 0
747 1 -4.7616799231037987e+00 -5.7072077904190399e+00 -2.0645271578540992e+01 0 0 0
1510 1 -2.7082658170287752e+00 -5.4659767489093118e+00 -1.8850307830257186e+01 0 0 0
2208 1 1.4162635671963208e+00 -7.5649659256077397e+00 -1.9860543607773288e+01 0 0 0
134 1 -2.4151579574745923e+00 -5.4115813514357978e+00 -2.1229152335757060e+01 0 0 0
2289 1 -6.8377369711007763e-01 -7.4661746643761422e+00 -2.1344144235057616e+01 0 0 0
3888 2 -8.6950314199337708e-01 -7.5361919454413986e+00 -1.8991484763418732e+01 0 0 0
1465 1 -4.9903166125697340e-02 -5.3835721398209380e+00 -1.9872661941832629e+01 0 0 0
2422 1 2.0889100498521498e+00 -5.5076207890501525e+00 -2.1230482899513454e+01 0 0 0
4343 2 2.2878630273966949e+00 -5.6002923470258930e+00 -1.8526798430172903e+01 0 0 0
4646 2 4.3918119583501314e+00 -5.5438601753548795e+00 -2.0291311137536230e+01 0 0 0
1263 1 3.4483733905769793e+00 -7.6803390806380731e+00 -1.8139996631642784e+01 0 0 0
380 1 6.1528371489644584e+00 -7.7053400986150402e+00 -1.8429661656580841e+01 0 0 0
1846 1 6.4839416114744575e+00 -5.2637916128593529e+00 -2.1988995225130985e+01 0 0 0
4604 2 5.9718517218246649e+00 -7.3889791056979304e+00 -2.0847278091268986e+01 0 0 0
4450 2 6.7854720657236038e+00 -5.5504767424315391e+00 -1.9416494290012697e+01 0 0 0
5202 2 8.7025409188677223e+00 -5.8151220777320036e+00 -2.0949790073597448e+01 0 0 0
2527 1 8.9997146238249250e+00 -5.8615874938399344e+00 -1.8441871053591242e+01 0 0 0
2121 1 1.1092892229867596e+01 -5.9303750194645763e+00 -2.0261919693147814e+01 0 0 0
583 1 1.1513781817012067e+01 -3.7937764361370898e+00 -2.1686376882195187e+01 0 0 0
642 1 1.2120383511616264e+01 -3.7230411767803391e+00 -1.9097856975944808e+01 0 0 0
2034 1 9.7244836552966536e+00 -3.8238708820205529e+00 -1.9735105256417057e+01 0 0 0
4849 2 1.3475282380679467e+01 -5.7703813182728751e+00 -1.9354544763688718e+01 0 0 0
131 1 1.5852756955636503e+01 -6.0340059215512731e+00 -1.8635003163250509e+01 0 0 0
699 1 1.3806063455783690e+01 -3.8135954567341019e+00 -2.0859788845871829e+01 0 0 0
5306 2 -1.2003446158218217e+01 -2.7190367463203922e+00 -1.8997582775642538e+01 0 0 0
5118 2 -1.1112324037508360e+01 -2.1203603150163236e-01 -1.8694985910695110e+01 0 0 0
4079 2 -5.9645431499649897e+00 -3.7162086219960853e+00 -1.9624636835113726e+01 0 0 0
1796 1 -9.7281926333454223e+00 -2.3383538728081716e+00 -2.0155781695453271e+01 0 0 0
4831 2 -7.4747561785103773e+00 -1.8714049711539686e+00 -2.1204633193813859e+01 0 0 0
4540 2 -8.9542727454962172e+00 4.5612697487248818e-02 -1.9881022375062585e+01 0 0 0
1946 1 -7.5434718323294705e+00 -1.6889268661489740e+00 -1.8609766694088290e+01 0 0 0
446 1 -5.8045775482767636e+00 -3.5913405981636046e+00 -2.2168878918988060e+01 0 0 0
4712 2 -5.3191912242435251e+00 -1.4263627543663393e+00 -1.9841977586384672e+01 0 0 0
4276 2 -3.7160667575574493e+00 -3.3593842393053799e+00 -2.0672494202502548e+01 0 0 0
2870 1 -3.1071674255303816e+00 -1.1694484699074144e+00 -2.1720225020462134e+01 0 0 0
3267 2 -2.7704127707830239e+00 -1.3697765976948559e+00 -1.9333374567983221e+01 0 0 0
4670 2 -1.4584310314605129e+00 -3.3344050079950920e+00 -2.2073305727182923e+01 0 0 0
3252 2 -1.5073199674263726e+00 -3.4483972274201360e+00 -1.9487012739016066e+01 0 0 0
3652 2 -6.0710999246539155e-01 -1.1814700992629761e+00 -2.0595330676951921e+01 0 0 0
1579 1 6.4362385149875045e-01 -3.3615494435235900e+00 -2.0875746284869415e+01 0 0 0
4900 2 1.1514828066248088e+00 -1.1601198536259785e+00 -2.2283772556955842e+01 0 0 0
4426 2 1.7054600960633830e+00 -1.2934057081464407e+00 -1.9614457489530238e+01 0 0 0
3378 2 2.9260062899629129e+00 -3.5553094520755502e+00 -1.9876758163299602e+01 0 0 0
327 1 3.4389812461780180e+00 -1.3990304053367115e+00 -2.1236202359982649e+01 0 0 0
1065 1 3.9899560721450640e+00 -1.5159018831644233e+00 -1.8767312832667223e+01 0 0 0
1152 1 4.9134473818171660e+00 -3.4296455430626320e+00 -2.1615362055380981e+01 0 0 0
41 1 5.3356476997754507e+00 -3.5377938081769367e+00 -1.8996394928967788e+01 0 0 0
489 1 7.3774839718702081e+00 -3.3566557055981763e+00 -2.0588724010501601e+01 0 0 0
2766 1 5.9814506474307274e+00 -1.4417036961171437e+00 -2.0485967869643442e+01 0 0 0
2939 2 8.3951618078804664e+00 -1.4257094734677798e+00 -1.9633296541394966e+01 0 0 0
1727 1 1.0228865872996224e+01 -1.6974688493508672e+00 -2.1339157527235496e+01 0 0 0
4830 2 1.0775425789890043e+01 -1.6211412686667814e+00 -1.8828572178290635e+01 0 0 0
4848 2 1.2568294857558131e+01 -1.6228371101433727e+00 -2.0606672639763971e+01 0 0 0
3161 2 1.7214518472273941e+01 -1.3020126807103630e-01 -1.1746209523055930e+00 0 0 0
516 1 1.4376730584947705e+01 -1.7854479768730394e+00 -2.2308357247639549e+01 0 0 0
4282 2 1.6142767437049688e+01 -3.8165781243547814e+00 -2.0058058789534059e+01 0 0 0
3336 2 1.4892825548249931e+01 -1.6929798130351452e+00 -1.9763387326266287e+01 0 0 0
2109 1 1.9539986673852415e+01 -9.8780351167723590e-01 -1.1940583181262479e+00 0 0 0
504 1 1.7212404907287414e+01 -1.8889026387424259e+00 -1.9203859800168480e+01 0 0 0
1315 1 -7.6591348886567108e+00 -1.6182530826636565e+01 -1.5066187136321957e+01 0 0 0
3818 2 -5.7274615260476835e+00 -1.6437377954231795e+01 -1.6578821958827284e+01 0 0 0
351 1 -3.2653178333520887e+00 -1.7830468823601308e+01 -1.6115086486768554e+01 0 0 0
3331 2 -3.3809275335747824e+00 -1.5954939524491268e+01 -1.7816249872524558e+01 0 0 0
3928 2 -8.7136793637809032e-02 -1.7823202808904849e+01 -1.5943780096148975e+01 0 0 0
2329 1 -9.8627142517785877e+00 -1.4558985303006144e+01 -1.5582097268022743e+01 0 0 0
2528 1 -1.0010581852122924e+01 -1.2974045235376193e+01 -1.7587278799075452e+01 0 0 0
3346 2 -1.1868211383094181e+01 -1.2896956229954419e+01 -1.5907244113650426e+01 0 0 0
3399 2 -7.9347618858584816e+00 -1.4756788015492667e+01 -1.7127549105444068e+01 0 0 0
1134 1 -5.9203340588975948e+00 -1.4287498625553578e+01 -1.5532404045356708e+01 0 0 0
3239 2 -8.1300617353132445e+00 -1.2529065324075047e+01 -1.5914394262941906e+01 0 0 0
3821 2 -5.8788153956860434e+00 -1.2199346578300842e+01 -1.7014057959077881e+01 0 0 0
661 1 -5.7599093597766275e+00 -1.4249704422231479e+01 -1.8088552587592542e+01 0 0 0
314 1 -3.8888556598888107e+00 -1.3906095437266060e+01 -1.6682687501582208e+01 0 0 0
4398 2 -2.0940338043752096e+00 -1.3576323005166698e+01 -1.5027341276650557e+01 0 0 0
4138 2 -9.6504720150349055e-01 -1.5706111954743010e+01 -1.8510000144900925e+01 0 0 0
2859 1 -1.6439184209544118e+00 -1.3634311754257965e+01 -1.7564405575930877e+01 0 0 0
3412 2 -1.6477931262606089e+00 -1.5667973866857686e+01 -1.6046747868751979e+01 0 0 0
135 1 7.1215493900843307e-01 -1.3963417586348079e+01 -1.8251497436408798e+01 0 0 0
1392 1 9.8901020038621024e-01 -1.5880176827612908e+01 -1.6842420938160526e+01 0 0 0
415 1 2.1318758133207297e-01 -1.3682122124578655e+01 -1.5792948705270016e+01 0 0 0
3920 2 3.6096307142543624e+00 -1.6001089610415285e+01 -1.7349550450381482e+01 0 0 0
44 1 2.8957260873464197e+00 -1.5650539232197493e+01 -1.4973367484827627e+01 0 0 0
3709 2 2.5148183013478911e+00 -1.3746604804512197e+01 -1.6425594273785013e+01 0 0 0
4525 2 4.8613856651040930e+00 -1.3742616649677956e+01 -1.7091505315519580e+01 0 0 0
1405 1 4.3142453996035037e+00 -1.3473196136069998e+01 -1.4693482322626588e+01 0 0 0
4461 2 5.3357275378074567e+00 -1.5590364408137763e+01 -1.5389729808552115e+01 0 0 0
5359 2 7.2427236198996079e+00 -1.4016441899822839e+01 -1.7568595719039408e+01 0 0 0
113 1 6.6870416320192554e+00 -1.3362271962420056e+01 -1.5375750866063235e+01 0 0 0
4683 2 8.2356609126936018e+00 -1.5401534645324594e+01 -1.5451379072643787e+01 0 0 0
2936 2 5.9568449219226851e+00 -1.1731316463495354e+01 -1.8160828732463340e+01 0 0 0
2966 2 1.1071517609884369e+01 -1.2084606680854467e+01 -1.8133281754934455e+01 0 0 0
508 1 9.6085384318590066e+00 -1.3637693199849760e+01 -1.6656774313894662e+01 0 0 0
1067 1 1.0597576173801523e+01 -1.5091579427119790e+01 -1.4659359421815731e+01 0 0 0
2974 2 1.1960256521883039e+01 -1.3473836067697929e+01 -1.6145926223152621e+01 0 0 0
1563 1 1.4510418148111533e+01 -1.3273064010486273e+01 -1.5496149103931380e+01 0 0 0
3235 2 1.3472811984889804e+01 -1.2177368465494956e+01 -1.7527726846233534e+01 0 0 0
5356 2 1.6520759967747750e+01 -1.2249411372180322e+01 -1.6567659637613346e+01 0 0 0
613 1 1.7997316515915116e+01 -1.2836634896022526e+01 -1.4465959982258189e+01 0 0 0
1893 1 -1.4052563661741937e+01 -9.3364882721390785e+00 -1.7714305111033994e+01 0 0 0
4211 2 -1.3679559097387145e+01 -1.1307288862455200e+01 -1.6146194734508665e+01 0 0 0
4905 2 -1.4056971574791161e+01 -9.0964957592426607e+00 -1.5083797615787391e+01 0 0 0
3991 2 -1.6198993833273118e+01 -7.9888745932653755e+00 -1.5224855059904460e+01 0 0 0
802 1 -1.2011469528492944e+01 -1.1383348108292159e+01 -1.7889565608431305e+01 0 0 0
1082 1 -1.0197156775311585e+01 -1.0922758908771977e+01 -1.6241190339781916e+01 0 0 0
433 1 -1.2052830786857177e+01 -9.2556863584476563e+00 -1.6469690370271174e+01 0 0 0
3000 2 -1.0083954358547253e+01 -8.7015878583925392e+00 -1.5057378682796298e+01 0 0 0
3423 2 -9.9560192893635566e+00 -8.8013555935283492e+00 -1.7635878316283126e+01 0 0 0
256 1 -1.1937006479843765e+01 -1.0879218119609034e+01 -1.4476844044803647e+01 0 0 0
4512 2 -7.8906100855770474e+00 -1.0558655715673241e+01 -1.7206012411066244e+01 0 0 0
2212 1 -5.9977438833788410e+00 -1.0144172502512417e+01 -1.5573241342512814e+01 0 0 0
2968 2 -7.8857103460240445e+00 -8.2484523504155352e+00 -1.5953677594360727e+01 0 0 0
4362 2 -8.1689766686000382e+00 -1.0343855754302769e+01 -1.4571066575837218e+01 0 0 0
5034 2 -3.2670674642498154e+00 -1.1794678554507122e+01 -1.7732897326781920e+01 0 0 0
4431 2 -5.7576413371205053e+00 -1.0090813864858154e+01 -1.8230720249224802e+01 0 0 0
2511 1 -4.0191292718194056e+00 -1.1803393352754863e+01 -1.5344228708434382e+01 0 0 0
1548 1 -3.9072090312202929e+00 -9.5874391365754885e+00 -1.6550392079519440e+01 0 0 0
3084 2 -2.1573526142783450e+00 -9.2636088516944728e+00 -1.4958541657492640e+01 0 0 0
1991 1 -1.8346776840810062e+00 -9.7004468657589715e+00 -1.7669752742653721e+01 0 0 0
1041 1 -1.4536706830364863e+00 -1.1582592788133958e+01 -1.6129271640058256e+01 0 0 0
3130 2 1.0109608547025546e+00 -1.1757823926432177e+01 -1.7087348719730226e+01 0 0 0
4921 2 9.4189553792940847e-02 -9.6305554037558174e+00 -1.6086670599479234e+01 0 0 0
4700 2 3.4581257012932762e+00 -1.1728419645811437e+01 -1.7689095854454610e+01 0 0 0
2631 1 2.8380874346389282e+00 -1.1399310158016757e+01 -1.5187708852242421e+01 0 0 0
3165 2 2.3674401426804361e+00 -9.6303719939922097e+00 -1.6850314135190946e+01 0 0 0
5201 2 4.7934799506523333e+00 -9.6867889693745521e+00 -1.7692561275791508e+01 0 0 0
975 1 5.1415581934026227e+00 -1.1558924202421215e+01 -1.5866338647349282e+01 0 0 0
192 1 4.3254094786104460e+00 -9.3908710486802409e+00 -1.5376697657330299e+01 0 0 0
796 1 6.7042483654342577e+00 -9.4479437843114606e+00 -1.5982705671091415e+01 0 0 0
1901 1 8.0333229451531896e+00 -1.1568276150073537e+01 -1.6313833593215140e+01 0 0 0
4422 2 9.2325124471089435e+00 -9.5503248882171725e+00 -1.5138233115254135e+01 0 0 0
4479 2 8.2564223870892857e+00 -7.8829634234042905e+00 -1.7177406622833189e+01 0 0 0
4240 2 1.0522532700145179e+01 -1.1436694946084527e+01 -1.5683076283921389e+01 0 0 0
494 1 9.8250696214996491e+00 -1.0137470345011605e+01 -1.7668834057660771e+01 0 0 0
5119 2 1.0926857255897641e+01 -8.0025631456805968e+00 -1.6450804278724934e+01 0 0 0
2199 1 1.2148046251639725e+01 -9.9933879657213129e+00 -1.6965329312386007e+01 0 0 0
2689 1 1.2739179677297475e+01 -7.8796849195716874e+00 -1.8217013046740615e+01 0 0 0
466 1 1.3022028465634994e+01 -1.1516105937342633e+01 -1.4892245153092199e+01 0 0 0
222 1 1.1650521311949522e+01 -9.3837085468345105e+00 -1.4504013432622664e+01 0 0 0
4857 2 1.3491073616889945e+01 -8.3819593515621040e+00 -1.5741164493213628e+01 0 0 0
5401 2 1.4784600307508725e+01 -1.0430579938484339e+01 -1.6061107678624072e+01 0 0 0
3166 2 1.6210192403037546e+01 -8.5874231248749950e+00 -1.4891041140901105e+01 0 0 0
2029 1 1.5425672041394728e+01 -7.8876114940173272e+00 -1.7255800808434277e+01 0 0 0
895 1 1.6547582748039073e+01 -9.9596792814818897e+00 -1.7491236181929079e+01 0 0 0
4907 2 1.7668759542318313e+01 -1.0502112069555301e+01 -1.5420691748632469e+01 0 0 0
29 1 1.7876457769375946e+01 -7.9032593539517526e+00 -1.6475507807008047e+01 0 0 0
4455 2 -1.4122630498267487e+01 -7.2073929558043437e+00 -1.6851111619260031e+01 0 0 0
1436 1 -1.5378463944093449e+01 -5.6274689198550805e+00 -1.5542344634907675e+01 0 0 0
47 1 -1.2916483613127683e+01 -5.0591518349456992e+00 -1.6793250740458760e+01 0 0 0
1124 1 -1.2203859871318288e+01 -7.0759788587204460e+00 -1.5397392745159971e+01 0 0 0
631 1 -1.1750540853983280e+01 -7.0668802171336917e+00 -1.7739319252015950e+01 0 0 0
3842 2 -9.6788275455212940e+00 -6.5502643716011102e+00 -1.6437321881252277e+01 0 0 0
4738 2 -1.0640748281628612e+01 -4.5849663266246443e+00 -1.7732156201511234e+01 0 0 0
4655 2 -1.1064732731632475e+01 -4.6349097983970182e+00 -1.5233050205125517e+01 0 0 0
133 1 -8.6682771927653288e+00 -4.1269110384861749e+00 -1.6156800577760158e+01 0 0 0
2608 1 -7.5490927875772664e+00 -6.1885910292796513e+00 -1.7377493119457288e+01 0 0 0
5270 2 -7.9537525840090177e+00 -5.9586334639994636e+00 -1.4687753559474890e+01 0 0 0
1935 1 -5.6481143921132588e+00 -7.9598052349738166e+00 -1.7018329299053377e+01 0 0 0
4554 2 -5.7001667851048703e+00 -5.6163772851321507e+00 -1.5640618627325564e+01 0 0 0
3542 2 -5.1631066669370895e+00 -5.7874060076897331e+00 -1.8130293789251695e+01 0 0 0
1393 1 -3.3263675614204238e+00 -7.5242133249587999e+00 -1.8010193166611138e+01 0 0 0
5146 2 -3.7465023834989997e+00 -7.3481349435236458e+00 -1.5343297948029578e+01 0 0 0
5007 2 -3.3937868672667344e+00 -5.1852311523757599e+00 -1.6461161029653194e+01 0 0 0
1588 1 -1.6079135100424855e+00 -7.2765604353482676e+00 -1.6440938232671154e+01 0 0 0
465 1 -5.7874569266417819e-01 -5.3474417224064332e+00 -1.7511213710378609e+01 0 0 0
181 1 -1.2035127741406120e+00 -5.1643392407610564e+00 -1.5132523125237036e+01 0 0 0
2956 2 8.6149721926820599e-01 -7.5279158892785176e+00 -1.7255039393207383e+01 0 0 0
4865 2 3.9940429251305454e-01 -7.1604716544001210e+00 -1.4885719590181010e+01 0 0 0
3825 2 1.5705108345875369e+00 -5.3676098534134988e+00 -1.6271474274952332e+01 0 0 0
5155 2 3.0188024210726736e+00 -7.3413956748891112e+00 -1.5720487221918182e+01 0 0 0
3874 2 4.7897409262577995e+00 -5.5421928790662678e+00 -1.7665626818226585e+01 0 0 0
2836 1 4.0670141019208357e+00 -5.1583034620161516e+00 -1.5377090142135941e+01 0 0 0
628 1 5.5799374525668117e+00 -7.4641110422163521e+00 -1.6038401821003731e+01 0 0 0
5311 2 7.1319886758636590e+00 -5.7546789163433107e+00 -1.6975193424088825e+01 0 0 0
2360 1 7.7792488337819155e+00 -7.4889400624817606e+00 -1.4736188722950850e+01 0 0 0
1768 1 8.2346477993170240e+00 -3.9589050338073459e+00 -1.5521409776122162e+01 0 0 0
1242 1 9.5618937383377460e+00 -5.9302406438683208e+00 -1.5929666247827772e+01 0 0 0
3844 2 1.1451094452634674e+01 -5.8604406916941869e+00 -1.7915058360083698e+01 0 0 0
179 1 1.2020675110481880e+01 -6.2295920356636030e+00 -1.5334240117500531e+01 0 0 0
1711 1 1.0762268432723273e+01 -4.0843294923082905e+00 -1.4874873904487812e+01 0 0 0
937 1 1.3888046535284174e+01 -5.9594021931232799e+00 -1.7021416136007268e+01 0 0 0
3879 2 1.6461376650799309e+01 -5.6707914889620836e+00 -1.6185270409653608e+01 0 0 0
4253 2 1.8743341422809525e+01 -5.5711869596979158e+00 -1.5502641345612458e+01 0 0 0
2281 1 1.6953841556162658e+01 -3.6896265023233927e+00 -1.7562608404376927e+01 0 0 0
1552 1 -1.6456424516679739e+01 -2.5088628186534794e+00 -1.5107990296742996e+01 0 0 0
4898 2 -1.4192058484481000e+01 -3.3509232072102986e+00 -1.5577113979720313e+01 0 0 0
4775 2 -1.5698656369315197e+01 -5.3204447675917380e-02 -1.4632668308885577e+01 0 0 0
4067 2 -1.3558724398061914e+01 -9.6150558742360270e-01 -1.5261226300827158e+01 0 0 0
3094 2 -1.3215167659227349e+01 -9.6011315350422377e-01 -1.7795642248972850e+01 0 0 0
813 1 -1.1996439200870970e+01 -2.7451911518911816e+00 -1.6601158415113172e+01 0 0 0
443 1 -9.8616949172691264e+00 -2.2969523730416994e+00 -1.4976658509683119e+01 0 0 0
315 1 -1.1217781858141796e+01 -4.6603350441573788e-01 -1.6234410290539323e+01 0 0 0
2258 1 -9.8928395735623660e+00 -2.2540006029430049e+00 -1.7598657857524369e+01 0 0 0
3472 2 -6.3496174381503749e+00 -3.7687982693619477e+00 -1.7131653607479620e+01 0 0 0
3221 2 -7.7093597911384117e+00 -1.6856460847467891e+00 -1.6059983627964531e+01 0 0 0
3036 2 -9.1934740528878081e+00 8.9623060328520701e-02 -1.4739448880812517e+01 0 0 0
1383 1 -4.4817496134519974e+00 -3.1081348737663324e+00 -1.5600252766984953e+01 0 0 0
3088 2 -5.5530796480081008e+00 -1.1815126332087977e+00 -1.7095020086009615e+01 0 0 0
4890 2 -4.1626159220665491e+00 -3.2236356178538963e+00 -1.8144835040502912e+01 0 0 0
1634 1 -3.1231256932132143e+00 -1.1740298272925751e+00 -1.6933834684633833e+01 0 0 0
1360 1 8.1857847660748484e-01 -3.4350423763236710e+00 -1.8294933258606783e+01 0 0 0
4341 2 -1.7162993231911170e+00 -3.2214594533847976e+00 -1.6811055266751818e+01 0 0 0
4208 2 -4.1864693629883626e-01 -1.3496632182245920e+00 -1.8149678149288114e+01 0 0 0
434 1 -8.6453760347968378e-01 -1.0716774845938943e+00 -1.5629487473738589e+01 0 0 0
4051 2 3.8607940041742855e-01 -3.2227212332393620e+00 -1.5626668660488805e+01 0 0 0
5408 2 1.9851971630760747e+00 -1.5404246908142165e+00 -1.6963845389814381e+01 0 0 0
2959 2 3.2668694487373724e+00 -3.5641857567509634e+00 -1.7319806026752598e+01 0 0 0
1482 1 2.7256873394309937e+00 -3.1870388994613812e+00 -1.5024265186699241e+01 0 0 0
4217 2 4.4191613463379857e+00 -1.6324312276284254e+00 -1.6249961052973990e+01 0 0 0
1958 1 5.8779009202101964e+00 -3.6614442863067946e+00 -1.6572411164243348e+01 0 0 0
1228 1 7.7195038851019637e+00 -3.5317609196095168e+00 -1.8180127684763626e+01 0 0 0
2607 1 6.9456088176334045e+00 -1.7812820114301857e+00 -1.5455662252744967e+01 0 0 0
3436 2 6.4969034912708006e+00 -1.4413882905057842e+00 -1.7970802470540367e+01 0 0 0
955 1 8.7540216473112036e+00 -1.3843126421785621e+00 -1.7155304814279912e+01 0 0 0
2495 1 -8.4413243516095147e+00 8.7809999730397062e-02 -2.7200461842503398e+00 0 0 0
3764 2 9.3981906172324194e+00 -1.9195871348056632e+00 -1.4696960346085882e+01 0 0 0
3200 2 1.0082163466389213e+01 -3.5417852071199563e+00 -1.7340361648136085e+01 0 0 0
3997 2 1.1278421208653393e+01 -1.5330239965236534e+00 -1.6351350268458578e+01 0 0 0
5183 2 1.2458377415808419e+01 -3.7742072479273698e+00 -1.6632929419074383e+01 0 0 0
2748 1 1.3240076155864946e+01 -1.4633336854384775e+00 -1.8041193595567268e+01 0 0 0
2395 1 1.4568230333535476e+01 -3.7363965927444949e+00 -1.8218674703391098e+01 0 0 0
2572 1 1.5029659595740084e+01 -3.6483729797846971e+00 -1.5873227925170799e+01 0 0 0
3724 2 1.5606215469225880e+01 -1.5703737231165706e+00 -1.7328034951052690e+01 0 0 0
2056 1 1.3748258403283838e+01 -1.4527158598784364e+00 -1.5547685260115463e+01 0 0 0
2455 1 1.6196438390991833e+01 -1.4155239988208954e+00 -1.4837300885522998e+01 0 0 0
208 1 1.7395228272993375e+01 -3.4998996345328304e+00 -1.5141394095763884e+01 0 0 0
1408 1 1.8177011534416742e+01 -1.6691291143063194e+00 -1.6656888181132373e+01 0 0 0
3491 2 2.4010271068893235e+01 -9.4346000372797845e-01 -2.2174250550288268e+00 0 0 0
347 1 1.5136706600675897e+01 7.5337981717081115e-02 -6.0328420605036461e+00 0 0 0
4555 2 -3.6810667870461615e+00 -2.0785467177227392e+01 -1.1862744990447313e+01 0 0 0
3721 2 -1.2000799563618927e-01 -2.0876024731373647e+01 -1.1606925611612086e+01 0 0 0
1696 1 7.0262323900235071e+00 -2.0262355537272438e+01 -1.0962856214355744e+01 0 0 0
1375 1 -9.2269026796554332e+00 -1.7176298514723229e+01 -1.0993624854513946e+01 0 0 0
656 1 -7.3866169911119028e+00 -1.7730203390076817e+01 -1.2797391815113874e+01 0 0 0
3264 2 -5.6760286203065240e+00 -1.6908010988589968e+01 -1.1112547304646521e+01 0 0 0
2827 1 -3.8024547944228901e+00 -1.5775706247977496e+01 -1.4892129095501893e+01 0 0 0
4298 2 -5.4087691928830210e+00 -1.7832513658094253e+01 -1.4432934807700718e+01 0 0 0
3421 2 -5.4351919484123412e+00 -1.9220805961633626e+01 -1.2267517332769055e+01 0 0 0
4995 2 -3.5270074626079655e+00 -1.9371840841212688e+01 -1.4030656201206813e+01 0 0 0
4073 2 -3.8545068221352641e+00 -1.7153413353090869e+01 -1.2794342964497069e+01 0 0 0
3274 2 -1.9238428889234063e+00 -1.9119860380676428e+01 -1.2284106460113492e+01 0 0 0
847 1 -2.1424647040265068e+00 -1.6718062363721916e+01 -1.1020588915895926e+01 0 0 0
1918 1 -1.8003535074772177e+00 -1.7440031240109075e+01 -1.4211776859366116e+01 0 0 0
1753 1 -7.9641865210704141e-02 -1.7358909115059582e+01 -1.2526646556329439e+01 0 0 0
4568 2 2.0794383807758879e-01 -1.9438034174470971e+01 -1.3655901684748740e+01 0 0 0
2938 2 1.6163290044499452e+00 -1.9119585354947379e+01 -1.1664370385390534e+01 0 0 0
1624 1 2.0667965622939803e+00 -1.7783332590124484e+01 -1.4161090710954268e+01 0 0 0
900 1 3.5381417143608567e+00 -1.9590292406016651e+01 -1.3036868186043915e+01 0 0 0
359 1 3.5723375600378069e+00 -1.7382887310576994e+01 -1.2038057600127377e+01 0 0 0
1149 1 4.5460848003024079e+00 -1.7608808650787172e+01 -1.4287032970149630e+01 0 0 0
171 1 4.7626024335724280e+00 -1.9241012650391138e+01 -1.0803043214204878e+01 0 0 0
2520 1 6.9435281365510875e+00 -1.7306587231887892e+01 -1.4354487135709061e+01 0 0 0
3160 2 5.9625876700591895e+00 -1.9640743348540461e+01 -1.3113584867559405e+01 0 0 0
422 1 5.9874868079325472e+00 -1.7406475374439985e+01 -1.1997179786001404e+01 0 0 0
295 1 8.1236887195643810e+00 -1.8414589983466129e+01 -1.2267451210699081e+01 0 0 0
1922 1 9.3042211960990748e+00 -1.6833173889582472e+01 -1.3482202386438944e+01 0 0 0
3812 2 1.0213622447557514e+01 -1.7273878740487337e+01 -1.1106813472315967e+01 0 0 0
36 1 1.1738957071157339e+01 -1.6471152170152138e+01 -1.2749152560650048e+01 0 0 0
4230 2 1.2467638850962587e+01 -1.8312546347069500e+01 -1.1194948401825632e+01 0 0 0
3309 2 -1.3333037765704576e+01 -1.3933175528748322e+01 -1.1830805961015093e+01 0 0 0
245 1 -1.5340096814613284e+01 -1.2433841730762936e+01 -1.2199645223358225e+01 0 0 0
2817 1 -1.3558925011452329e+01 -1.2693165938198668e+01 -1.3990020728775670e+01 0 0 0
1531 1 -9.5529797090697635e+00 -1.5966475331446986e+01 -1.3230047584527775e+01 0 0 0
4696 2 -1.1538414100983085e+01 -1.5659604039302542e+01 -1.1445376790830815e+01 0 0 0
1374 1 -1.1630974890420534e+01 -1.4349896970309590e+01 -1.3641667936029972e+01 0 0 0
1920 1 -9.6995418294925884e+00 -1.3735073029563832e+01 -1.1993256782388269e+01 0 0 0
175 1 -9.9344317397231254e+00 -1.2358558778998846e+01 -1.4135946584148403e+01 0 0 0
4284 2 -1.1738974264597392e+01 -1.2159828453790659e+01 -1.2397671723012014e+01 0 0 0